   2   2   1   0
  0.9066555E+02  0.2463800E-09  0.2463789E-09  0.3449320E-08  0.5000000E-15
  1.000000000000000E-004
  CAR 
 "graphene"                              
     11.70000923    -24.91443547  301     -3.36984919      1.00000000
    -24.914  0.0000E+00  0.0000E+00
    -24.792  0.0000E+00  0.0000E+00
    -24.670  0.0000E+00  0.0000E+00
    -24.548 -0.1387E-28 -0.1693E-29
    -24.426 -0.1943E-24 -0.2371E-25
    -24.304 -0.1287E-20 -0.1571E-21
    -24.182 -0.4029E-17 -0.4919E-18
    -24.060 -0.5775E-14 -0.7053E-15
    -23.938 -0.3999E-11 -0.4887E-12
    -23.816 -0.1298E-08 -0.1589E-09
    -23.694 -0.1964E-06 -0.2413E-07
    -23.572 -0.1374E-04 -0.1701E-05
    -23.450 -0.4353E-03 -0.5483E-04
    -23.328 -0.5958E-02 -0.7820E-03
    -23.206 -0.3013E-01 -0.4460E-02
    -23.084 -0.5220E-02 -0.5097E-02
    -22.962  0.3280E+00  0.3494E-01
    -22.840  0.8163E+00  0.1346E+00
    -22.718  0.8310E+00  0.2360E+00
    -22.596  0.5499E+00  0.3031E+00
    -22.473  0.3980E+00  0.3517E+00
    -22.351  0.3458E+00  0.3939E+00
    -22.229  0.3134E+00  0.4321E+00
    -22.107  0.2877E+00  0.4672E+00
    -21.985  0.2672E+00  0.4998E+00
    -21.863  0.2504E+00  0.5304E+00
    -21.741  0.2368E+00  0.5593E+00
    -21.619  0.2248E+00  0.5868E+00
    -21.497  0.2150E+00  0.6130E+00
    -21.375  0.2060E+00  0.6381E+00
    -21.253  0.1985E+00  0.6624E+00
    -21.131  0.1911E+00  0.6857E+00
    -21.009  0.1862E+00  0.7084E+00
    -20.887  0.1780E+00  0.7301E+00
    -20.765  0.1775E+00  0.7518E+00
    -20.643  0.1663E+00  0.7721E+00
    -20.521  0.1695E+00  0.7928E+00
    -20.399  0.1603E+00  0.8123E+00
    -20.277  0.1561E+00  0.8314E+00
    -20.155  0.1622E+00  0.8512E+00
    -20.033  0.1423E+00  0.8686E+00
    -19.910  0.1562E+00  0.8876E+00
    -19.788  0.1490E+00  0.9058E+00
    -19.666  0.1299E+00  0.9217E+00
    -19.544  0.1625E+00  0.9415E+00
    -19.422  0.1254E+00  0.9568E+00
    -19.300  0.1345E+00  0.9732E+00
    -19.178  0.1569E+00  0.9924E+00
    -19.056  0.1107E+00  0.1006E+01
    -18.934  0.1409E+00  0.1023E+01
    -18.812  0.1446E+00  0.1041E+01
    -18.690  0.1112E+00  0.1054E+01
    -18.568  0.1356E+00  0.1071E+01
    -18.446  0.1403E+00  0.1088E+01
    -18.324  0.1187E+00  0.1102E+01
    -18.202  0.1210E+00  0.1117E+01
    -18.080  0.1443E+00  0.1135E+01
    -17.958  0.9975E-01  0.1147E+01
    -17.836  0.1201E+00  0.1162E+01
    -17.714  0.5040E+00  0.1223E+01
    -17.592  0.9448E+00  0.1339E+01
    -17.469  0.8985E+00  0.1448E+01
    -17.347  0.6346E+00  0.1526E+01
    -17.225  0.4637E+00  0.1582E+01
    -17.103  0.3763E+00  0.1628E+01
    -16.981  0.3674E+00  0.1673E+01
    -16.859  0.3194E+00  0.1712E+01
    -16.737  0.4066E+00  0.1762E+01
    -16.615  0.9511E+00  0.1878E+01
    -16.493  0.1332E+01  0.2040E+01
    -16.371  0.1085E+01  0.2173E+01
    -16.249  0.8377E+00  0.2275E+01
    -16.127  0.7935E+00  0.2372E+01
    -16.005  0.8645E+00  0.2477E+01
    -15.883  0.1038E+01  0.2604E+01
    -15.761  0.1007E+01  0.2727E+01
    -15.639  0.5704E+00  0.2796E+01
    -15.517  0.1908E+00  0.2820E+01
    -15.395  0.1368E+00  0.2836E+01
    -15.273  0.1151E+00  0.2850E+01
    -15.151  0.1133E+00  0.2864E+01
    -15.029  0.1512E+00  0.2883E+01
    -14.906  0.1465E+00  0.2901E+01
    -14.784  0.9380E-01  0.2912E+01
    -14.662  0.1289E+00  0.2928E+01
    -14.540  0.1614E+00  0.2948E+01
    -14.418  0.9348E-01  0.2959E+01
    -14.296  0.9715E-01  0.2971E+01
    -14.174  0.1246E+00  0.2986E+01
    -14.052  0.1896E+00  0.3009E+01
    -13.930  0.4475E+00  0.3064E+01
    -13.808  0.6221E+00  0.3140E+01
    -13.686  0.5438E+00  0.3206E+01
    -13.564  0.3881E+00  0.3253E+01
    -13.442  0.2939E+00  0.3289E+01
    -13.320  0.3504E+00  0.3332E+01
    -13.198  0.3598E+00  0.3376E+01
    -13.076  0.2566E+00  0.3407E+01
    -12.954  0.2877E+00  0.3442E+01
    -12.832  0.3395E+00  0.3484E+01
    -12.710  0.2862E+00  0.3519E+01
    -12.588  0.2477E+00  0.3549E+01
    -12.466  0.2967E+00  0.3585E+01
    -12.343  0.3101E+00  0.3623E+01
    -12.221  0.2537E+00  0.3654E+01
    -12.099  0.2714E+00  0.3687E+01
    -11.977  0.2846E+00  0.3722E+01
    -11.855  0.2739E+00  0.3755E+01
    -11.733  0.2918E+00  0.3791E+01
    -11.611  0.2512E+00  0.3822E+01
    -11.489  0.2555E+00  0.3853E+01
    -11.367  0.3156E+00  0.3891E+01
    -11.245  0.2315E+00  0.3920E+01
    -11.123  0.3100E+00  0.3957E+01
    -11.001  0.8486E+00  0.4061E+01
    -10.879  0.1145E+01  0.4201E+01
    -10.757  0.8873E+00  0.4309E+01
    -10.635  0.7028E+00  0.4395E+01
    -10.513  0.6845E+00  0.4478E+01
    -10.391  0.6215E+00  0.4554E+01
    -10.269  0.5547E+00  0.4622E+01
    -10.147  0.5792E+00  0.4693E+01
    -10.025  0.6576E+00  0.4773E+01
     -9.903  0.7676E+00  0.4867E+01
     -9.780  0.1013E+01  0.4990E+01
     -9.658  0.1110E+01  0.5126E+01
     -9.536  0.8151E+00  0.5225E+01
     -9.414  0.5148E+00  0.5288E+01
     -9.292  0.5309E+00  0.5353E+01
     -9.170  0.6076E+00  0.5427E+01
     -9.048  0.4751E+00  0.5485E+01
     -8.926  0.4374E+00  0.5538E+01
     -8.804  0.5472E+00  0.5605E+01
     -8.682  0.4748E+00  0.5663E+01
     -8.560  0.4215E+00  0.5714E+01
     -8.438  0.4768E+00  0.5773E+01
     -8.316  0.4815E+00  0.5831E+01
     -8.194  0.4348E+00  0.5884E+01
     -8.072  0.4372E+00  0.5938E+01
     -7.950  0.4791E+00  0.5996E+01
     -7.828  0.4581E+00  0.6052E+01
     -7.706  0.4298E+00  0.6105E+01
     -7.584  0.4846E+00  0.6164E+01
     -7.462  0.4824E+00  0.6223E+01
     -7.340  0.4568E+00  0.6278E+01
     -7.217  0.5064E+00  0.6340E+01
     -7.095  0.5292E+00  0.6405E+01
     -6.973  0.5184E+00  0.6468E+01
     -6.851  0.5709E+00  0.6538E+01
     -6.729  0.6376E+00  0.6616E+01
     -6.607  0.7684E+00  0.6709E+01
     -6.485  0.1114E+01  0.6845E+01
     -6.363  0.1218E+01  0.6994E+01
     -6.241  0.6189E+00  0.7070E+01
     -6.119  0.1287E+00  0.7085E+01
     -5.997  0.1145E+00  0.7099E+01
     -5.875  0.2405E+00  0.7129E+01
     -5.753  0.6070E+00  0.7203E+01
     -5.631  0.9282E+00  0.7316E+01
     -5.509  0.7404E+00  0.7406E+01
     -5.387  0.4393E+00  0.7460E+01
     -5.265  0.3690E+00  0.7505E+01
     -5.143  0.3652E+00  0.7549E+01
     -5.021  0.2981E+00  0.7586E+01
     -4.899  0.2784E+00  0.7620E+01
     -4.776  0.3034E+00  0.7657E+01
     -4.654  0.2602E+00  0.7689E+01
     -4.532  0.2321E+00  0.7717E+01
     -4.410  0.2650E+00  0.7749E+01
     -4.288  0.2413E+00  0.7779E+01
     -4.166  0.2097E+00  0.7804E+01
     -4.044  0.2409E+00  0.7834E+01
     -3.922  0.2263E+00  0.7861E+01
     -3.800  0.1979E+00  0.7886E+01
     -3.678  0.2197E+00  0.7912E+01
     -3.556  0.2157E+00  0.7939E+01
     -3.434  0.2934E+00  0.7974E+01
     -3.312  0.3994E+00  0.8023E+01
     -3.190  0.3027E+00  0.8060E+01
     -3.068  0.2206E+00  0.8087E+01
     -2.946  0.2260E+00  0.8115E+01
     -2.824  0.2101E+00  0.8140E+01
     -2.702  0.2432E+00  0.8170E+01
     -2.580  0.2631E+00  0.8202E+01
     -2.458  0.2443E+00  0.8232E+01
     -2.336  0.2928E+00  0.8268E+01
     -2.213  0.3323E+00  0.8308E+01
     -2.091  0.3262E+00  0.8348E+01
     -1.969  0.4298E+00  0.8400E+01
     -1.847  0.7765E+00  0.8495E+01
     -1.725  0.1259E+01  0.8649E+01
     -1.603  0.1176E+01  0.8792E+01
     -1.481  0.5151E+00  0.8855E+01
     -1.359  0.1142E+00  0.8869E+01
     -1.237  0.7522E-01  0.8878E+01
     -1.115  0.1378E+00  0.8895E+01
     -0.993  0.1353E+00  0.8912E+01
     -0.871  0.1039E+00  0.8924E+01
     -0.749  0.9237E-01  0.8936E+01
     -0.627  0.1214E+00  0.8951E+01
     -0.505  0.1296E+00  0.8966E+01
     -0.383  0.4601E-01  0.8972E+01
     -0.261  0.8971E-01  0.8983E+01
     -0.139  0.5120E+00  0.9045E+01
     -0.017  0.8725E+00  0.9152E+01
      0.105  0.7190E+00  0.9240E+01
      0.227  0.5216E+00  0.9303E+01
      0.350  0.4728E+00  0.9361E+01
      0.472  0.3685E+00  0.9406E+01
      0.594  0.5204E+00  0.9469E+01
      0.716  0.1052E+01  0.9598E+01
      0.838  0.1446E+01  0.9774E+01
      0.960  0.1552E+01  0.9964E+01
      1.082  0.1660E+01  0.1017E+02
      1.204  0.1798E+01  0.1039E+02
      1.326  0.1578E+01  0.1058E+02
      1.448  0.1183E+01  0.1072E+02
      1.570  0.9841E+00  0.1084E+02
      1.692  0.1007E+01  0.1097E+02
      1.814  0.1014E+01  0.1109E+02
      1.936  0.8412E+00  0.1119E+02
      2.058  0.7719E+00  0.1129E+02
      2.180  0.8164E+00  0.1139E+02
      2.302  0.8341E+00  0.1149E+02
      2.424  0.7461E+00  0.1158E+02
      2.546  0.6546E+00  0.1166E+02
      2.668  0.6907E+00  0.1174E+02
      2.790  0.7842E+00  0.1184E+02
      2.913  0.6841E+00  0.1192E+02
      3.035  0.5787E+00  0.1199E+02
      3.157  0.5594E+00  0.1206E+02
      3.279  0.5951E+00  0.1213E+02
      3.401  0.6414E+00  0.1221E+02
      3.523  0.5139E+00  0.1227E+02
      3.645  0.3625E+00  0.1232E+02
      3.767  0.2949E+00  0.1236E+02
      3.889  0.3853E+00  0.1240E+02
      4.011  0.9097E+00  0.1251E+02
      4.133  0.1361E+01  0.1268E+02
      4.255  0.1078E+01  0.1281E+02
      4.377  0.7115E+00  0.1290E+02
      4.499  0.5883E+00  0.1297E+02
      4.621  0.4592E+00  0.1303E+02
      4.743  0.3275E+00  0.1307E+02
      4.865  0.3406E+00  0.1311E+02
      4.987  0.4106E+00  0.1316E+02
      5.109  0.3476E+00  0.1320E+02
      5.231  0.2937E+00  0.1324E+02
      5.354  0.3480E+00  0.1328E+02
      5.476  0.3503E+00  0.1332E+02
      5.598  0.3038E+00  0.1336E+02
      5.720  0.3229E+00  0.1340E+02
      5.842  0.3303E+00  0.1344E+02
      5.964  0.2719E+00  0.1347E+02
      6.086  0.2909E+00  0.1351E+02
      6.208  0.3789E+00  0.1355E+02
      6.330  0.3079E+00  0.1359E+02
      6.452  0.2008E+00  0.1361E+02
      6.574  0.2810E+00  0.1365E+02
      6.696  0.4150E+00  0.1370E+02
      6.818  0.3263E+00  0.1374E+02
      6.940  0.1476E+00  0.1376E+02
      7.062  0.2303E+00  0.1379E+02
      7.184  0.6609E+00  0.1387E+02
      7.306  0.1192E+01  0.1401E+02
      7.428  0.1109E+01  0.1415E+02
      7.550  0.5787E+00  0.1422E+02
      7.672  0.6370E+00  0.1430E+02
      7.794  0.1260E+01  0.1445E+02
      7.917  0.1713E+01  0.1466E+02
      8.039  0.1672E+01  0.1486E+02
      8.161  0.1368E+01  0.1503E+02
      8.283  0.1167E+01  0.1517E+02
      8.405  0.9108E+00  0.1528E+02
      8.527  0.5624E+00  0.1535E+02
      8.649  0.3705E+00  0.1540E+02
      8.771  0.3623E+00  0.1544E+02
      8.893  0.4225E+00  0.1549E+02
      9.015  0.4411E+00  0.1555E+02
      9.137  0.4430E+00  0.1560E+02
      9.259  0.4662E+00  0.1566E+02
      9.381  0.5681E+00  0.1573E+02
      9.503  0.7819E+00  0.1582E+02
      9.625  0.8628E+00  0.1593E+02
      9.747  0.5197E+00  0.1599E+02
      9.869  0.1154E+00  0.1600E+02
      9.991 -0.2224E-01  0.1600E+02
     10.113 -0.1508E-01  0.1600E+02
     10.235 -0.2482E-02  0.1600E+02
     10.357 -0.1685E-03  0.1600E+02
     10.480 -0.5119E-05  0.1600E+02
     10.602 -0.7155E-07  0.1600E+02
     10.724 -0.4659E-09  0.1600E+02
     10.846 -0.1422E-11  0.1600E+02
     10.968 -0.2062E-14  0.1600E+02
     11.090  0.0000E+00  0.1600E+02
     11.212  0.0000E+00  0.1600E+02
     11.334  0.0000E+00  0.1600E+02
     11.456  0.0000E+00  0.1600E+02
     11.578  0.0000E+00  0.1600E+02
     11.700  0.0000E+00  0.1600E+02
     11.70000923    -24.91443547  301     -3.36984919      1.00000000
    -24.914  0.0000E+00  0.0000E+00  0.0000E+00  0.0000E+00  0.0000E+00  0.0000E+00  0.0000E+00  0.0000E+00  0.0000E+00
    -24.792  0.0000E+00  0.0000E+00  0.0000E+00  0.0000E+00  0.0000E+00  0.0000E+00  0.0000E+00  0.0000E+00  0.0000E+00
    -24.670  0.0000E+00  0.0000E+00  0.0000E+00  0.0000E+00  0.0000E+00  0.0000E+00  0.0000E+00  0.0000E+00  0.0000E+00
    -24.548 -0.4488E-29 -0.5961E-33 -0.1772E-40 -0.6402E-33  0.0000E+00  0.0000E+00  0.0000E+00  0.0000E+00  0.0000E+00
    -24.426 -0.6285E-25 -0.9131E-29 -0.2572E-36 -0.9812E-29  0.0000E+00  0.0000E+00  0.0000E+00  0.0000E+00  0.0000E+00
    -24.304 -0.4164E-21 -0.6660E-25 -0.1763E-32 -0.7156E-25  0.0000E+00  0.0000E+00  0.0000E+00  0.0000E+00  0.0000E+00
    -24.182 -0.1304E-17 -0.2315E-21 -0.5697E-29 -0.2487E-21  0.0000E+00  0.0000E+00  0.0000E+00  0.0000E+00  0.0000E+00
    -24.060 -0.1868E-14 -0.3704E-18 -0.8402E-26 -0.4008E-18  0.0000E+00  0.0000E+00  0.0000E+00  0.0000E+00  0.0000E+00
    -23.938 -0.1294E-11 -0.2927E-15 -0.5979E-23 -0.3145E-15  0.0000E+00  0.0000E+00  0.0000E+00  0.0000E+00  0.0000E+00
    -23.816 -0.4198E-09 -0.1095E-12 -0.1985E-20 -0.1176E-12  0.0000E+00  0.0000E+00  0.0000E+00  0.0000E+00  0.0000E+00
    -23.694 -0.6354E-07 -0.1949E-10 -0.3059E-18 -0.2095E-10  0.0000E+00  0.0000E+00  0.0000E+00  0.0000E+00  0.0000E+00
    -23.572 -0.4444E-05 -0.1648E-08 -0.2163E-16 -0.1771E-08  0.0000E+00  0.0000E+00  0.0000E+00  0.0000E+00  0.0000E+00
    -23.450 -0.1408E-03 -0.6572E-07 -0.6864E-15 -0.7061E-07  0.0000E+00  0.0000E+00  0.0000E+00  0.0000E+00  0.0000E+00
    -23.328 -0.1926E-02 -0.1215E-05 -0.9254E-14 -0.1306E-05  0.0000E+00  0.0000E+00  0.0000E+00  0.0000E+00  0.0000E+00
    -23.206 -0.9736E-02 -0.9891E-05 -0.4435E-13 -0.1063E-04  0.0000E+00  0.0000E+00  0.0000E+00  0.0000E+00  0.0000E+00
    -23.084 -0.1645E-02 -0.2805E-04  0.7080E-14 -0.3014E-04  0.0000E+00  0.0000E+00  0.0000E+00  0.0000E+00  0.0000E+00
    -22.962  0.1061E+00  0.3508E-04  0.4949E-12  0.3769E-04  0.0000E+00  0.0000E+00  0.0000E+00  0.0000E+00  0.0000E+00
    -22.840  0.2636E+00  0.3553E-03  0.1098E-11  0.3818E-03  0.0000E+00  0.0000E+00  0.0000E+00  0.0000E+00  0.0000E+00
    -22.718  0.2676E+00  0.8581E-03  0.1156E-11  0.9221E-03  0.0000E+00  0.0000E+00  0.0000E+00  0.0000E+00  0.0000E+00
    -22.596  0.1760E+00  0.1279E-02  0.8984E-12  0.1375E-02  0.0000E+00  0.0000E+00  0.0000E+00  0.0000E+00  0.0000E+00
    -22.473  0.1263E+00  0.1569E-02  0.4163E-12  0.1686E-02  0.0000E+00  0.0000E+00  0.0000E+00  0.0000E+00  0.0000E+00
    -22.351  0.1091E+00  0.1800E-02  0.7546E-13  0.1934E-02  0.0000E+00  0.0000E+00  0.0000E+00  0.0000E+00  0.0000E+00
    -22.229  0.9827E-01  0.2004E-02  0.2054E-13  0.2154E-02  0.0000E+00  0.0000E+00  0.0000E+00  0.0000E+00  0.0000E+00
    -22.107  0.8965E-01  0.2190E-02  0.3263E-13  0.2353E-02  0.0000E+00  0.0000E+00  0.0000E+00  0.0000E+00  0.0000E+00
    -21.985  0.8277E-01  0.2362E-02  0.5088E-13  0.2538E-02  0.0000E+00  0.0000E+00  0.0000E+00  0.0000E+00  0.0000E+00
    -21.863  0.7710E-01  0.2520E-02  0.4477E-13  0.2709E-02  0.0000E+00  0.0000E+00  0.0000E+00  0.0000E+00  0.0000E+00
    -21.741  0.7244E-01  0.2671E-02  0.1462E-13  0.2870E-02  0.0000E+00  0.0000E+00  0.0000E+00  0.0000E+00  0.0000E+00
    -21.619  0.6836E-01  0.2813E-02 -0.4505E-15  0.3022E-02  0.0000E+00  0.0000E+00  0.0000E+00  0.0000E+00  0.0000E+00
    -21.497  0.6497E-01  0.2945E-02 -0.1105E-14  0.3165E-02  0.0000E+00  0.0000E+00  0.0000E+00  0.0000E+00  0.0000E+00
    -21.375  0.6185E-01  0.3079E-02 -0.2340E-15  0.3306E-02  0.0000E+00  0.0000E+00  0.0000E+00  0.0000E+00  0.0000E+00
    -21.253  0.5925E-01  0.3195E-02  0.2761E-16  0.3431E-02  0.0000E+00  0.0000E+00  0.0000E+00  0.0000E+00  0.0000E+00
    -21.131  0.5667E-01  0.3315E-02  0.2197E-15  0.3569E-02  0.0000E+00  0.0000E+00  0.0000E+00  0.0000E+00  0.0000E+00
    -21.009  0.5489E-01  0.3450E-02  0.3007E-15  0.3679E-02  0.0000E+00  0.0000E+00  0.0000E+00  0.0000E+00  0.0000E+00
    -20.887  0.5213E-01  0.3488E-02  0.1350E-15  0.3804E-02  0.0000E+00  0.0000E+00  0.0000E+00  0.0000E+00  0.0000E+00
    -20.765  0.5170E-01  0.3751E-02  0.1233E-16  0.3923E-02  0.0000E+00  0.0000E+00  0.0000E+00  0.0000E+00  0.0000E+00
    -20.643  0.4814E-01  0.3595E-02  0.4460E-17  0.4012E-02  0.0000E+00  0.0000E+00  0.0000E+00  0.0000E+00  0.0000E+00
    -20.521  0.4875E-01  0.4032E-02  0.1451E-16  0.4145E-02  0.0000E+00  0.0000E+00  0.0000E+00  0.0000E+00  0.0000E+00
    -20.399  0.4586E-01  0.3818E-02  0.3128E-16  0.4250E-02  0.0000E+00  0.0000E+00  0.0000E+00  0.0000E+00  0.0000E+00
    -20.277  0.4435E-01  0.4022E-02  0.9436E-16  0.4274E-02  0.0000E+00  0.0000E+00  0.0000E+00  0.0000E+00  0.0000E+00
    -20.155  0.4585E-01  0.4388E-02  0.1211E-15  0.4562E-02  0.0000E+00  0.0000E+00  0.0000E+00  0.0000E+00  0.0000E+00
    -20.033  0.4000E-01  0.3786E-02  0.1012E-15  0.4380E-02  0.0000E+00  0.0000E+00  0.0000E+00  0.0000E+00  0.0000E+00
    -19.910  0.4355E-01  0.4732E-02  0.1433E-15  0.4702E-02  0.0000E+00  0.0000E+00  0.0000E+00  0.0000E+00  0.0000E+00
    -19.788  0.4144E-01  0.4324E-02  0.1170E-15  0.4838E-02  0.0000E+00  0.0000E+00  0.0000E+00  0.0000E+00  0.0000E+00
    -19.666  0.3584E-01  0.4018E-02  0.6096E-16  0.4413E-02  0.0000E+00  0.0000E+00  0.0000E+00  0.0000E+00  0.0000E+00
    -19.544  0.4462E-01  0.5412E-02  0.6786E-16  0.5446E-02  0.0000E+00  0.0000E+00  0.0000E+00  0.0000E+00  0.0000E+00
    -19.422  0.3435E-01  0.3985E-02  0.3953E-16  0.4527E-02  0.0000E+00  0.0000E+00  0.0000E+00  0.0000E+00  0.0000E+00
    -19.300  0.3649E-01  0.4600E-02  0.2083E-17  0.5072E-02  0.0000E+00  0.0000E+00  0.0000E+00  0.0000E+00  0.0000E+00
    -19.178  0.4249E-01  0.5767E-02 -0.3370E-17  0.5638E-02  0.0000E+00  0.0000E+00  0.0000E+00  0.0000E+00  0.0000E+00
    -19.056  0.2989E-01  0.3798E-02 -0.1292E-18  0.4446E-02  0.0000E+00  0.0000E+00  0.0000E+00  0.0000E+00  0.0000E+00
    -18.934  0.3775E-01  0.5135E-02  0.3693E-17  0.5814E-02  0.0000E+00  0.0000E+00  0.0000E+00  0.0000E+00  0.0000E+00
    -18.812  0.3865E-01  0.5980E-02  0.5195E-17  0.5385E-02  0.0000E+00  0.0000E+00  0.0000E+00  0.0000E+00  0.0000E+00
    -18.690  0.2971E-01  0.3911E-02  0.2111E-17  0.4977E-02  0.0000E+00  0.0000E+00  0.0000E+00  0.0000E+00  0.0000E+00
    -18.568  0.3600E-01  0.5258E-02 -0.9997E-19  0.5947E-02  0.0000E+00  0.0000E+00  0.0000E+00  0.0000E+00  0.0000E+00
    -18.446  0.3712E-01  0.6380E-02 -0.1846E-18  0.5418E-02  0.0000E+00  0.0000E+00  0.0000E+00  0.0000E+00  0.0000E+00
    -18.324  0.3164E-01  0.4226E-02 -0.2599E-19  0.5674E-02  0.0000E+00  0.0000E+00  0.0000E+00  0.0000E+00  0.0000E+00
    -18.202  0.3205E-01  0.4917E-02  0.1704E-19  0.5532E-02  0.0000E+00  0.0000E+00  0.0000E+00  0.0000E+00  0.0000E+00
    -18.080  0.3801E-01  0.6933E-02  0.3217E-19  0.5829E-02  0.0000E+00  0.0000E+00  0.0000E+00  0.0000E+00  0.0000E+00
    -17.958  0.2600E-01  0.4241E-02  0.1995E-19  0.4731E-02  0.0000E+00  0.0000E+00  0.0000E+00  0.0000E+00  0.0000E+00
    -17.836  0.3279E-01  0.4421E-02  0.3638E-20  0.5582E-02  0.0000E+00  0.0000E+00  0.0000E+00  0.0000E+00  0.0000E+00
    -17.714  0.1466E+00  0.1293E-01  0.3248E-20  0.2291E-01  0.0000E+00  0.0000E+00  0.0000E+00  0.0000E+00  0.0000E+00
    -17.592  0.2801E+00  0.1904E-01  0.6848E-20  0.4451E-01  0.0000E+00  0.0000E+00  0.0000E+00  0.0000E+00  0.0000E+00
    -17.469  0.2661E+00  0.1853E-01  0.5669E-20  0.4296E-01  0.0000E+00  0.0000E+00  0.0000E+00  0.0000E+00  0.0000E+00
    -17.347  0.1833E+00  0.1810E-01  0.4676E-20  0.2990E-01  0.0000E+00  0.0000E+00  0.0000E+00  0.0000E+00  0.0000E+00
    -17.225  0.1317E+00  0.1542E-01  0.3412E-20  0.2220E-01  0.0000E+00  0.0000E+00  0.0000E+00  0.0000E+00  0.0000E+00
    -17.103  0.1066E+00  0.1261E-01  0.1307E-20  0.1872E-01  0.0000E+00  0.0000E+00  0.0000E+00  0.0000E+00  0.0000E+00
    -16.981  0.1037E+00  0.1486E-01  0.1523E-20  0.1654E-01  0.0000E+00  0.0000E+00  0.0000E+00  0.0000E+00  0.0000E+00
    -16.859  0.9276E-01  0.1400E-01  0.1628E-20  0.1167E-01  0.0000E+00  0.0000E+00  0.0000E+00  0.0000E+00  0.0000E+00
    -16.737  0.9670E-01  0.1838E-01  0.2030E-20  0.3109E-01  0.0000E+00  0.0000E+00  0.0000E+00  0.0000E+00  0.0000E+00
    -16.615  0.1725E+00  0.4679E-01  0.5010E-20  0.1101E+00  0.0000E+00  0.0000E+00  0.0000E+00  0.0000E+00  0.0000E+00
    -16.493  0.2252E+00  0.6659E-01  0.4717E-20  0.1659E+00  0.0000E+00  0.0000E+00  0.0000E+00  0.0000E+00  0.0000E+00
    -16.371  0.1865E+00  0.5425E-01  0.1421E-20  0.1341E+00  0.0000E+00  0.0000E+00  0.0000E+00  0.0000E+00  0.0000E+00
    -16.249  0.1539E+00  0.4288E-01  0.1454E-20  0.9658E-01  0.0000E+00  0.0000E+00  0.0000E+00  0.0000E+00  0.0000E+00
    -16.127  0.1520E+00  0.4153E-01  0.2461E-20  0.8707E-01  0.0000E+00  0.0000E+00  0.0000E+00  0.0000E+00  0.0000E+00
    -16.005  0.1754E+00  0.4602E-01  0.1592E-20  0.8831E-01  0.0000E+00  0.0000E+00  0.0000E+00  0.0000E+00  0.0000E+00
    -15.883  0.2176E+00  0.5405E-01  0.1966E-20  0.1036E+00  0.0000E+00  0.0000E+00  0.0000E+00  0.0000E+00  0.0000E+00
    -15.761  0.2110E+00  0.4986E-01  0.2633E-20  0.1040E+00  0.0000E+00  0.0000E+00  0.0000E+00  0.0000E+00  0.0000E+00
    -15.639  0.1213E+00  0.2801E-01  0.1160E-20  0.5844E-01  0.0000E+00  0.0000E+00  0.0000E+00  0.0000E+00  0.0000E+00
    -15.517  0.4083E-01  0.1074E-01 -0.1080E-22  0.1828E-01  0.0000E+00  0.0000E+00  0.0000E+00  0.0000E+00  0.0000E+00
    -15.395  0.2739E-01  0.8670E-02 -0.3806E-22  0.1364E-01  0.0000E+00  0.0000E+00  0.0000E+00  0.0000E+00  0.0000E+00
    -15.273  0.2390E-01  0.7812E-02  0.1469E-21  0.1048E-01  0.0000E+00  0.0000E+00  0.0000E+00  0.0000E+00  0.0000E+00
    -15.151  0.2400E-01  0.8138E-02  0.2251E-21  0.9773E-02  0.0000E+00  0.0000E+00  0.0000E+00  0.0000E+00  0.0000E+00
    -15.029  0.2930E-01  0.9815E-02 -0.6469E-21  0.1605E-01  0.0000E+00  0.0000E+00  0.0000E+00  0.0000E+00  0.0000E+00
    -14.906  0.2874E-01  0.1017E-01 -0.3572E-20  0.1481E-01  0.0000E+00  0.0000E+00  0.0000E+00  0.0000E+00  0.0000E+00
    -14.784  0.1934E-01  0.7435E-02  0.9313E-20  0.8074E-02  0.0000E+00  0.0000E+00  0.0000E+00  0.0000E+00  0.0000E+00
    -14.662  0.2450E-01  0.9548E-02  0.6620E-19  0.1345E-01  0.0000E+00  0.0000E+00  0.0000E+00  0.0000E+00  0.0000E+00
    -14.540  0.2995E-01  0.1153E-01  0.9409E-19  0.1779E-01  0.0000E+00  0.0000E+00  0.0000E+00  0.0000E+00  0.0000E+00
    -14.418  0.1808E-01  0.7478E-02  0.3973E-19  0.9124E-02  0.0000E+00  0.0000E+00  0.0000E+00  0.0000E+00  0.0000E+00
    -14.296  0.2028E-01  0.7944E-02 -0.5988E-21  0.8518E-02  0.0000E+00  0.0000E+00  0.0000E+00  0.0000E+00  0.0000E+00
    -14.174  0.2582E-01  0.7368E-02 -0.2810E-20  0.1373E-01  0.0000E+00  0.0000E+00  0.0000E+00  0.0000E+00  0.0000E+00
    -14.052  0.2153E-01  0.2046E-01 -0.1663E-20  0.2484E-01  0.0000E+00  0.0000E+00  0.0000E+00  0.0000E+00  0.0000E+00
    -13.930  0.1887E-01  0.6693E-01 -0.4211E-20  0.6377E-01  0.0000E+00  0.0000E+00  0.0000E+00  0.0000E+00  0.0000E+00
    -13.808  0.2023E-01  0.9389E-01  0.8192E-20  0.9237E-01  0.0000E+00  0.0000E+00  0.0000E+00  0.0000E+00  0.0000E+00
    -13.686  0.2845E-01  0.7763E-01  0.5953E-19  0.7801E-01  0.0000E+00  0.0000E+00  0.0000E+00  0.0000E+00  0.0000E+00
    -13.564  0.2570E-01  0.5659E-01  0.8273E-19  0.5131E-01  0.0000E+00  0.0000E+00  0.0000E+00  0.0000E+00  0.0000E+00
    -13.442  0.1674E-01  0.4529E-01  0.3548E-19  0.3893E-01  0.0000E+00  0.0000E+00  0.0000E+00  0.0000E+00  0.0000E+00
    -13.320  0.2743E-01  0.4854E-01 -0.5251E-20  0.4695E-01  0.0000E+00  0.0000E+00  0.0000E+00  0.0000E+00  0.0000E+00
    -13.198  0.3092E-01  0.4892E-01 -0.3912E-19  0.4739E-01  0.0000E+00  0.0000E+00  0.0000E+00  0.0000E+00  0.0000E+00
    -13.076  0.1675E-01  0.3973E-01  0.1405E-18  0.3329E-01  0.0000E+00  0.0000E+00  0.0000E+00  0.0000E+00  0.0000E+00
    -12.954  0.2127E-01  0.4358E-01  0.7577E-18  0.3709E-01  0.0000E+00  0.0000E+00  0.0000E+00  0.0000E+00  0.0000E+00
    -12.832  0.3073E-01  0.4667E-01  0.8388E-18  0.4458E-01  0.0000E+00  0.0000E+00  0.0000E+00  0.0000E+00  0.0000E+00
    -12.710  0.2148E-01  0.4111E-01  0.7188E-18  0.3936E-01  0.0000E+00  0.0000E+00  0.0000E+00  0.0000E+00  0.0000E+00
    -12.588  0.1749E-01  0.4036E-01  0.2640E-17  0.3077E-01  0.0000E+00  0.0000E+00  0.0000E+00  0.0000E+00  0.0000E+00
    -12.466  0.2500E-01  0.4510E-01  0.3761E-17  0.3754E-01  0.0000E+00  0.0000E+00  0.0000E+00  0.0000E+00  0.0000E+00
    -12.343  0.2405E-01  0.4339E-01  0.1587E-17  0.4450E-01  0.0000E+00  0.0000E+00  0.0000E+00  0.0000E+00  0.0000E+00
    -12.221  0.1892E-01  0.4003E-01 -0.2227E-16  0.3305E-01  0.0000E+00  0.0000E+00  0.0000E+00  0.0000E+00  0.0000E+00
    -12.099  0.2032E-01  0.4556E-01 -0.2320E-13  0.3325E-01  0.0000E+00  0.0000E+00  0.0000E+00  0.0000E+00  0.0000E+00
    -11.977  0.2057E-01  0.4344E-01 -0.1148E-10  0.3976E-01  0.0000E+00  0.0000E+00  0.0000E+00  0.0000E+00  0.0000E+00
    -11.855  0.2052E-01  0.4120E-01 -0.2657E-08  0.3873E-01  0.0000E+00  0.0000E+00  0.0000E+00  0.0000E+00  0.0000E+00
    -11.733  0.2081E-01  0.4870E-01 -0.2860E-06  0.3796E-01  0.0000E+00  0.0000E+00  0.0000E+00  0.0000E+00  0.0000E+00
    -11.611  0.1641E-01  0.4421E-01 -0.1412E-04  0.3197E-01  0.0000E+00  0.0000E+00  0.0000E+00  0.0000E+00  0.0000E+00
    -11.489  0.1689E-01  0.4101E-01 -0.3109E-03  0.3708E-01  0.0000E+00  0.0000E+00  0.0000E+00  0.0000E+00  0.0000E+00
    -11.367  0.2243E-01  0.5230E-01 -0.2827E-02  0.4730E-01  0.0000E+00  0.0000E+00  0.0000E+00  0.0000E+00  0.0000E+00
    -11.245  0.1733E-01  0.4919E-01 -0.7588E-02  0.3297E-01  0.0000E+00  0.0000E+00  0.0000E+00  0.0000E+00  0.0000E+00
    -11.123  0.1156E-01  0.4171E-01  0.1865E-01  0.3004E-01  0.0000E+00  0.0000E+00  0.0000E+00  0.0000E+00  0.0000E+00
    -11.001  0.1872E-01  0.5266E-01  0.1137E+00  0.4922E-01  0.0000E+00  0.0000E+00  0.0000E+00  0.0000E+00  0.0000E+00
    -10.879  0.2073E-01  0.5700E-01  0.1786E+00  0.4272E-01  0.0000E+00  0.0000E+00  0.0000E+00  0.0000E+00  0.0000E+00
    -10.757  0.1133E-01  0.4869E-01  0.1404E+00  0.3011E-01  0.0000E+00  0.0000E+00  0.0000E+00  0.0000E+00  0.0000E+00
    -10.635  0.1131E-01  0.5184E-01  0.9180E-01  0.4211E-01  0.0000E+00  0.0000E+00  0.0000E+00  0.0000E+00  0.0000E+00
    -10.513  0.1950E-01  0.6281E-01  0.7378E-01  0.4917E-01  0.0000E+00  0.0000E+00  0.0000E+00  0.0000E+00  0.0000E+00
    -10.391  0.1567E-01  0.6378E-01  0.6620E-01  0.4194E-01  0.0000E+00  0.0000E+00  0.0000E+00  0.0000E+00  0.0000E+00
    -10.269  0.7525E-02  0.5900E-01  0.6055E-01  0.3901E-01  0.0000E+00  0.0000E+00  0.0000E+00  0.0000E+00  0.0000E+00
    -10.147  0.1244E-01  0.6597E-01  0.5609E-01  0.4558E-01  0.0000E+00  0.0000E+00  0.0000E+00  0.0000E+00  0.0000E+00
    -10.025  0.1765E-01  0.8642E-01  0.5246E-01  0.5757E-01  0.0000E+00  0.0000E+00  0.0000E+00  0.0000E+00  0.0000E+00
     -9.903  0.9358E-02  0.1339E+00  0.4961E-01  0.6721E-01  0.0000E+00  0.0000E+00  0.0000E+00  0.0000E+00  0.0000E+00
     -9.780  0.5280E-02  0.2191E+00  0.4703E-01  0.8902E-01  0.0000E+00  0.0000E+00  0.0000E+00  0.0000E+00  0.0000E+00
     -9.658  0.1297E-01  0.2342E+00  0.4529E-01  0.1075E+00  0.0000E+00  0.0000E+00  0.0000E+00  0.0000E+00  0.0000E+00
     -9.536  0.1227E-01  0.1495E+00  0.4307E-01  0.8074E-01  0.0000E+00  0.0000E+00  0.0000E+00  0.0000E+00  0.0000E+00
     -9.414  0.3954E-02  0.8168E-01  0.4216E-01  0.4145E-01  0.0000E+00  0.0000E+00  0.0000E+00  0.0000E+00  0.0000E+00
     -9.292  0.7291E-02  0.7906E-01  0.4014E-01  0.5085E-01  0.0000E+00  0.0000E+00  0.0000E+00  0.0000E+00  0.0000E+00
     -9.170  0.1291E-01  0.8944E-01  0.3944E-01  0.6617E-01  0.0000E+00  0.0000E+00  0.0000E+00  0.0000E+00  0.0000E+00
     -9.048  0.6690E-02  0.6975E-01  0.3853E-01  0.4232E-01  0.0000E+00  0.0000E+00  0.0000E+00  0.0000E+00  0.0000E+00
     -8.926  0.3954E-02  0.6230E-01  0.3639E-01  0.4180E-01  0.0000E+00  0.0000E+00  0.0000E+00  0.0000E+00  0.0000E+00
     -8.804  0.1003E-01  0.7685E-01  0.3808E-01  0.6161E-01  0.0000E+00  0.0000E+00  0.0000E+00  0.0000E+00  0.0000E+00
     -8.682  0.8770E-02  0.7013E-01  0.3391E-01  0.4897E-01  0.0000E+00  0.0000E+00  0.0000E+00  0.0000E+00  0.0000E+00
     -8.560  0.3630E-02  0.5744E-01  0.3640E-01  0.4165E-01  0.0000E+00  0.0000E+00  0.0000E+00  0.0000E+00  0.0000E+00
     -8.438  0.6752E-02  0.6638E-01  0.3447E-01  0.5524E-01  0.0000E+00  0.0000E+00  0.0000E+00  0.0000E+00  0.0000E+00
     -8.316  0.8608E-02  0.7126E-01  0.3250E-01  0.5443E-01  0.0000E+00  0.0000E+00  0.0000E+00  0.0000E+00  0.0000E+00
     -8.194  0.4342E-02  0.5985E-01  0.3534E-01  0.4681E-01  0.0000E+00  0.0000E+00  0.0000E+00  0.0000E+00  0.0000E+00
     -8.072  0.4850E-02  0.6073E-01  0.3262E-01  0.5165E-01  0.0000E+00  0.0000E+00  0.0000E+00  0.0000E+00  0.0000E+00
     -7.950  0.7151E-02  0.7189E-01  0.3053E-01  0.5912E-01  0.0000E+00  0.0000E+00  0.0000E+00  0.0000E+00  0.0000E+00
     -7.828  0.4516E-02  0.6367E-01  0.3620E-01  0.5201E-01  0.0000E+00  0.0000E+00  0.0000E+00  0.0000E+00  0.0000E+00
     -7.706  0.4155E-02  0.6174E-01  0.2981E-01  0.5467E-01  0.0000E+00  0.0000E+00  0.0000E+00  0.0000E+00  0.0000E+00
     -7.584  0.5518E-02  0.7374E-01  0.2986E-01  0.6381E-01  0.0000E+00  0.0000E+00  0.0000E+00  0.0000E+00  0.0000E+00
     -7.462  0.3991E-02  0.6770E-01  0.3765E-01  0.5740E-01  0.0000E+00  0.0000E+00  0.0000E+00  0.0000E+00  0.0000E+00
     -7.340  0.3788E-02  0.7000E-01  0.2635E-01  0.6510E-01  0.0000E+00  0.0000E+00  0.0000E+00  0.0000E+00  0.0000E+00
     -7.217  0.4031E-02  0.7813E-01  0.3155E-01  0.6851E-01  0.0000E+00  0.0000E+00  0.0000E+00  0.0000E+00  0.0000E+00
     -7.095  0.3243E-02  0.7697E-01  0.3699E-01  0.7081E-01  0.0000E+00  0.0000E+00  0.0000E+00  0.0000E+00  0.0000E+00
     -6.973  0.3075E-02  0.8425E-01  0.2629E-01  0.7848E-01  0.0000E+00  0.0000E+00  0.0000E+00  0.0000E+00  0.0000E+00
     -6.851  0.2768E-02  0.9104E-01  0.3192E-01  0.8453E-01  0.0000E+00  0.0000E+00  0.0000E+00  0.0000E+00  0.0000E+00
     -6.729  0.2324E-02  0.1004E+00  0.3652E-01  0.9569E-01  0.0000E+00  0.0000E+00  0.0000E+00  0.0000E+00  0.0000E+00
     -6.607  0.1914E-02  0.1339E+00  0.2994E-01  0.1288E+00  0.0000E+00  0.0000E+00  0.0000E+00  0.0000E+00  0.0000E+00
     -6.485  0.1290E-02  0.2059E+00  0.2967E-01  0.2016E+00  0.0000E+00  0.0000E+00  0.0000E+00  0.0000E+00  0.0000E+00
     -6.363  0.5570E-03  0.2191E+00  0.3967E-01  0.2160E+00  0.0000E+00  0.0000E+00  0.0000E+00  0.0000E+00  0.0000E+00
     -6.241  0.6916E-04  0.9955E-01  0.3408E-01  0.9853E-01  0.0000E+00  0.0000E+00  0.0000E+00  0.0000E+00  0.0000E+00
     -6.119 -0.4085E-04  0.2705E-02  0.2847E-01  0.2763E-02  0.0000E+00  0.0000E+00  0.0000E+00  0.0000E+00  0.0000E+00
     -5.997 -0.1601E-04 -0.8595E-02  0.3832E-01 -0.8488E-02  0.0000E+00  0.0000E+00  0.0000E+00  0.0000E+00  0.0000E+00
     -5.875 -0.2106E-05 -0.1916E-02  0.6266E-01 -0.1895E-02  0.0000E+00  0.0000E+00  0.0000E+00  0.0000E+00  0.0000E+00