    2    2    1    1
  0.9066555E+02  0.2463800E-09  0.2463788E-09  0.3449320E-08  0.5000000E-15
  1.000000000000000E-004
  CAR 
 "graphene"                              
    8   90    8
 
  0.0000000E+00  0.0000000E+00  0.0000000E+00  0.1111111E-01
   1      -22.914435
   2      -11.007709
   3       -6.400990
   4       -6.400944
   5       -0.110693
   6        0.646442
   7        0.865752
   8        1.091003
 
  0.1724138E-01  0.0000000E+00  0.0000000E+00  0.1111111E-01
   1      -22.907393
   2      -10.999252
   3       -6.430235
   4       -6.416377
   5       -0.101140
   6        0.656150
   7        0.875569
   8        1.100792
 
  0.3448276E-01  0.0000000E+00  0.0000000E+00  0.1111111E-01
   1      -22.886277
   2      -10.974221
   3       -6.517824
   4       -6.462702
   5       -0.072500
   6        0.685222
   7        0.905020
   8        1.130143
 
  0.5172414E-01  0.0000000E+00  0.0000000E+00  0.1111111E-01
   1      -22.851087
   2      -10.932174
   3       -6.660591
   4       -6.537535
   5       -0.024755
   6        0.733724
   7        0.954104
   8        1.179075
 
  0.6896552E-01  0.0000000E+00  0.0000000E+00  0.1111111E-01
   1      -22.801844
   2      -10.873453
   3       -6.855390
   4       -6.638722
   5        0.042098
   6        0.801602
   7        1.022823
   8        1.247573
 
  0.8620690E-01  0.0000000E+00  0.0000000E+00  0.1111111E-01
   1      -22.738569
   2      -10.797964
   3       -7.097405
   4       -6.762715
   5        0.128061
   6        0.888867
   7        1.111176
   8        1.335642
 
  0.1034483E+00  0.0000000E+00  0.0000000E+00  0.1111111E-01
   1      -22.661288
   2      -10.705683
   3       -7.381178
   4       -6.905788
   5        0.233133
   6        0.995517
   7        1.219163
   8        1.443283
 
  0.1206897E+00  0.0000000E+00  0.0000000E+00  0.1111111E-01
   1      -22.570043
   2      -10.597164
   3       -7.701868
   4       -7.064605
   5        0.357304
   6        1.121461
   7        1.346785
   8        1.570469
 
  0.1379310E+00  0.0000000E+00  0.0000000E+00  0.1111111E-01
   1      -22.464882
   2      -10.472202
   3       -8.054252
   4       -7.234847
   5        0.500552
   6        1.266716
   7        1.494040
   8        1.717207
 
  0.1551724E+00  0.0000000E+00  0.0000000E+00  0.1111111E-01
   1      -22.345853
   2      -10.331113
   3       -8.433371
   4       -7.413532
   5        0.662863
   6        1.431204
   7        1.660929
   8        1.883478
 
  0.1724138E+00  0.0000000E+00  0.0000000E+00  0.1111111E-01
   1      -22.213012
   2      -10.174042
   3       -8.833474
   4       -7.597371
   5        0.844225
   6        1.614857
   7        1.847452
   8        2.069264
 
  0.1896552E+00  0.0000000E+00  0.0000000E+00  0.1111111E-01
   1      -22.066437
   2      -10.001182
   3       -9.251618
   4       -7.783660
   5        1.044596
   6        1.817556
   7        2.053607
   8        2.274532
 
  0.2068966E+00  0.0000000E+00  0.0000000E+00  0.1111111E-01
   1      -21.906203
   2       -9.812707
   3       -9.683602
   4       -7.969684
   5        1.263931
   6        2.039079
   7        2.279393
   8        2.499211
 
  0.2241379E+00  0.0000000E+00  0.0000000E+00  0.1111111E-01
   1      -21.732402
   2      -10.125902
   3       -9.609217
   4       -8.152750
   5        1.502182
   6        2.278884
   7        2.524810
   8        2.743113
 
  0.2413793E+00  0.0000000E+00  0.0000000E+00  0.1111111E-01
   1      -21.545143
   2      -10.575835
   3       -9.391036
   4       -8.331631
   5        1.759283
   6        2.535561
   7        2.789855
   8        3.005610
 
  0.2586207E+00  0.0000000E+00  0.0000000E+00  0.1111111E-01
   1      -21.344553
   2      -11.030812
   3       -9.158658
   4       -8.504484
   5        2.035117
   6        2.802782
   7        3.074523
   8        3.281535
 
  0.2758621E+00  0.0000000E+00  0.0000000E+00  0.1111111E-01
   1      -21.130765
   2      -11.488545
   3       -8.912722
   4       -8.669960
   5        2.329575
   6        2.991557
   7        3.296782
   8        3.378804
 
  0.2931034E+00  0.0000000E+00  0.0000000E+00  0.1111111E-01
   1      -20.903966
   2      -11.947254
   3       -8.826805
   4       -8.654063
   5        2.642354
   6        2.655918
   7        3.479537
   8        3.702667
 
  0.3103448E+00  0.0000000E+00  0.0000000E+00  0.1111111E-01
   1      -20.664343
   2      -12.404952
   3       -8.974010
   4       -8.383455
   5        2.189389
   6        2.973070
   7        3.802422
   8        4.045948
 
  0.3275862E+00  0.0000000E+00  0.0000000E+00  0.1111111E-01
   1      -20.412139
   2      -12.859927
   3       -9.110558
   4       -8.102523
   5        1.713585
   6        3.320672
   7        4.153972
   8        4.391920
 
  0.3448276E+00  0.0000000E+00  0.0000000E+00  0.1111111E-01
   1      -20.147693
   2      -13.311009
   3       -9.236247
   4       -7.813009
   5        1.239306
   6        3.681402
   7        4.335295
   8        4.526717
 
  0.3620690E+00  0.0000000E+00  0.0000000E+00  0.1111111E-01
   1      -19.871383
   2      -13.756717
   3       -9.350125
   4       -7.517142
   5        0.772467
   6        4.029121
   7        4.320938
   8        4.919076
 
  0.3793103E+00  0.0000000E+00  0.0000000E+00  0.1111111E-01
   1      -19.583809
   2      -14.195573
   3       -9.451821
   4       -7.218083
   5        0.318829
   6        4.163392
   7        4.542505
   8        5.330259
 
  0.3965517E+00  0.0000000E+00  0.0000000E+00  0.1111111E-01
   1      -19.285763
   2      -14.625927
   3       -9.540625
   4       -6.920097
   5       -0.115095
   6        4.143084
   7        4.942327
   8        5.759841
 
  0.4137931E+00  0.0000000E+00  0.0000000E+00  0.1111111E-01
   1      -18.978594
   2      -15.046094
   3       -9.616473
   4       -6.629581
   5       -0.522821
   6        4.111178
   7        5.377477
   8        6.207321
 
  0.4310345E+00  0.0000000E+00  0.0000000E+00  0.1111111E-01
   1      -18.664671
   2      -15.453025
   3       -9.678602
   4       -6.355805
   5       -0.893624
   6        4.082060
   7        5.833744
   8        6.672157
 
  0.4482759E+00  0.0000000E+00  0.0000000E+00  0.1111111E-01
   1      -18.348862
   2      -15.841645
   3       -9.727396
   4       -6.111580
   5       -1.214279
   6        4.058217
   7        6.308142
   8        7.153441
 
  0.4655172E+00  0.0000000E+00  0.0000000E+00  0.1111111E-01
   1      -18.042807
   2      -16.199816
   3       -9.762400
   4       -5.913959
   5       -1.467305
   6        4.041069
   7        6.799239
   8        7.649874
 
  0.4827586E+00  0.0000000E+00  0.0000000E+00  0.1111111E-01
   1      -17.780804
   2      -16.493078
   3       -9.783332
   4       -5.782941
   5       -1.631106
   6        4.030965
   7        7.304502
   8        8.157868
 
  0.5000000E+00  0.0000000E+00  0.0000000E+00  0.1111111E-01
   1      -17.661281
   2      -16.623082
   3       -9.790335
   4       -5.736920
   5       -1.688085
   6        4.027532
   7        7.756077
   8        7.909508
 
  0.5000000E+00  0.0000000E+00  0.0000000E+00  0.1111111E-01
   1      -17.661281
   2      -16.623082
   3       -9.790335
   4       -5.736920
   5       -1.688085
   6        4.027532
   7        7.756050
   8        7.909463
 
  0.4942529E+00  0.1149425E-01  0.0000000E+00  0.1111111E-01
   1      -17.659268
   2      -16.621093
   3       -9.800987
   4       -5.733830
   5       -1.688697
   6        4.041866
   7        7.758819
   8        7.912392
 
  0.4885057E+00  0.2298850E-01  0.0000000E+00  0.1111111E-01
   1      -17.653230
   2      -16.615072
   3       -9.832723
   4       -5.725059
   5       -1.690576
   6        4.084929
   7        7.767129
   8        7.921253
 
  0.4827586E+00  0.3448276E-01  0.0000000E+00  0.1111111E-01
   1      -17.643221
   2      -16.605104
   3       -9.885452
   4       -5.710745
   5       -1.693904
   6        4.156063
   7        7.780852
   8        7.935954
 
  0.4770115E+00  0.4597701E-01  0.0000000E+00  0.1111111E-01
   1      -17.629144
   2      -16.591226
   3       -9.957930
   4       -5.690950
   5       -1.698837
   6        4.254429
   7        7.800153
   8        7.956451
 
  0.4712644E+00  0.5747126E-01  0.0000000E+00  0.1111111E-01
   1      -17.611061
   2      -16.573419
   3      -10.049536
   4       -5.665287
   5       -1.705466
   6        4.379275
   7        7.824877
   8        7.982804
 
  0.4655172E+00  0.6896551E-01  0.0000000E+00  0.1111111E-01
   1      -17.588946
   2      -16.551710
   3      -10.158884
   4       -5.633874
   5       -1.714018
   6        4.529200
   7        7.855053
   8        8.015000
 
  0.4597701E+00  0.8045976E-01  0.0000000E+00  0.1111111E-01
   1      -17.562823
   2      -16.526199
   3      -10.284974
   4       -5.596888
   5       -1.725182
   6        4.702580
   7        7.890556
   8        8.052950
 
  0.4540230E+00  0.9195401E-01  0.0000000E+00  0.1111111E-01
   1      -17.532671
   2      -16.496852
   3      -10.425836
   4       -5.553998
   5       -1.738285
   6        4.898394
   7        7.931405
   8        8.096734
 
  0.4482759E+00  0.1034483E+00  0.0000000E+00  0.1111111E-01
   1      -17.498482
   2      -16.463890
   3      -10.580533
   4       -5.505430
   5       -1.754293
   6        5.114591
   7        7.977555
   8        8.146175
 
  0.4425287E+00  0.1149425E+00  0.0000000E+00  0.1111111E-01
   1      -17.460294
   2      -16.427368
   3      -10.747559
   4       -5.451501
   5       -1.774041
   6        5.349173
   7        8.028793
   8        8.201400
 
  0.4367816E+00  0.1264368E+00  0.0000000E+00  0.1111111E-01
   1      -17.418111
   2      -16.387463
   3      -10.925319
   4       -5.391772
   5       -1.796941
   6        5.600854
   7        8.085133
   8        8.262869
 
  0.4310345E+00  0.1379310E+00  0.0000000E+00  0.1111111E-01
   1      -17.371916
   2      -16.344234
   3      -11.112207
   4       -5.326154
   5       -1.823925
   6        5.867679
   7        8.146265
   8        8.335511
 
  0.4252873E+00  0.1494253E+00  0.0000000E+00  0.1111111E-01
   1      -17.321702
   2      -16.297948
   3      -11.306828
   4       -5.254984
   5       -1.855851
   6        6.148099
   7        8.212426
   8        8.382559
 
  0.4195402E+00  0.1609195E+00  0.0000000E+00  0.1111111E-01
   1      -17.267501
   2      -16.248812
   3      -11.508063
   4       -5.178258
   5       -1.893525
   6        6.439353
   7        8.282718
   8        8.298310
 
  0.4137931E+00  0.1724138E+00  0.0000000E+00  0.1111111E-01
   1      -17.209321
   2      -16.197240
   3      -11.714342
   4       -5.095973
   5       -1.936791
   6        6.739825
   7        8.209208
   8        8.360729
 
  0.4080460E+00  0.1839080E+00  0.0000000E+00  0.1111111E-01
   1      -17.147100
   2      -16.143536
   3      -11.924186
   4       -5.007791
   5       -1.986319
   6        7.047451
   7        8.112935
   8        8.465903
 
  0.4022988E+00  0.1954023E+00  0.0000000E+00  0.1111111E-01
   1      -17.080922
   2      -16.088325
   3      -12.136240
   4       -4.914396
   5       -2.043141
   6        7.359041
   7        8.011583
   8        8.519524
 
  0.3965517E+00  0.2068965E+00  0.0000000E+00  0.1111111E-01
   1      -17.010734
   2      -16.032301
   3      -12.348811
   4       -4.815518
   5       -2.106791
   6        7.673227
   7        7.909328
   8        8.611235
 
  0.3908046E+00  0.2183908E+00  0.0000000E+00  0.1111111E-01
   1      -16.936588
   2      -15.976239
   3      -12.560418
   4       -4.710976
   5       -2.178428
   6        7.807983
   7        7.984926
   8        8.694202
 
  0.3850574E+00  0.2298850E+00  0.0000000E+00  0.1111111E-01
   1      -16.858448
   2      -15.921474
   3      -12.769038
   4       -4.600834
   5       -2.258268
   6        7.710259
   7        8.289017
   8        8.783688
 
  0.3793103E+00  0.2413793E+00  0.0000000E+00  0.1111111E-01
   1      -16.776360
   2      -15.869710
   3      -12.972392
   4       -4.484875
   5       -2.346337
   6        7.618420
   7        8.577659
   8        8.876442
 
  0.3735632E+00  0.2528735E+00  0.0000000E+00  0.1111111E-01
   1      -16.690298
   2      -15.823150
   3      -13.167826
   4       -4.364155
   5       -2.443969
   6        7.534311
   7        8.850085
   8        8.971356
 
  0.3678161E+00  0.2643678E+00  0.0000000E+00  0.1111111E-01
   1      -16.600303
   2      -15.784801
   3      -13.351636
   4       -4.237864
   5       -2.550111
   6        7.459724
   7        9.060892
   8        9.065166
 
  0.3620689E+00  0.2758620E+00  0.0000000E+00  0.1111111E-01
   1      -16.506353
   2      -15.758727
   3      -13.519497
   4       -4.106366
   5       -2.665379
   6        7.395713
   7        9.154574
   8        9.252499
 
  0.3563218E+00  0.2873563E+00  0.0000000E+00  0.1111111E-01
   1      -16.408451
   2      -15.749825
   3      -13.665966
   4       -3.969496
   5       -2.789495
   6        7.343158
   7        9.244581
   8        9.368795
 
  0.3505747E+00  0.2988505E+00  0.0000000E+00  0.1111111E-01
   1      -16.306649
   2      -15.763577
   3      -13.785533
   4       -3.827325
   5       -2.922240
   6        7.302484
   7        9.330499
   8        9.466720
 
  0.3448276E+00  0.3103448E+00  0.0000000E+00  0.1111111E-01
   1      -16.200938
   2      -15.804845
   3      -13.872759
   4       -3.680490
   5       -3.063554
   6        7.273860
   7        9.411112
   8        9.538857
 
  0.3390804E+00  0.3218390E+00  0.0000000E+00  0.1111111E-01
   1      -16.091345
   2      -15.876353
   3      -13.924620
   4       -3.527825
   5       -3.212544
   6        7.257115
   7        9.483472
   8        9.571729
 
  0.3333333E+00  0.3333333E+00  0.0000000E+00  0.1111111E-01
   1      -15.977866
   2      -15.977768
   3      -13.941389
   4       -3.369968
   5       -3.369893
   6        7.251678
   7        9.547376
   8        9.553936
 
  0.3333333E+00  0.3333333E+00  0.0000000E+00  0.1111111E-01
   1      -15.977866
   2      -15.977768
   3      -13.941389
   4       -3.369968
   5       -3.369893
   6        7.251678
   7        9.547373
   8        9.547844
 
  0.3218390E+00  0.3218390E+00  0.0000000E+00  0.1111111E-01
   1      -16.255126
   2      -15.739311
   3      -13.883614
   4       -3.703596
   5       -3.038758
   6        7.270993
   7        9.284959
   8        9.650147
 
  0.3103448E+00  0.3103448E+00  0.0000000E+00  0.1111111E-01
   1      -16.598276
   2      -15.485391
   3      -13.736860
   4       -4.060593
   5       -2.687978
   6        7.319090
   7        8.818550
   8        9.700009
 
  0.2988505E+00  0.2988505E+00  0.0000000E+00  0.1111111E-01
   1      -16.974954
   2      -15.216340
   3      -13.532486
   4       -4.435574
   5       -2.318105
   6        7.372276
   7        8.268784
   8        9.673441
 
  0.2873563E+00  0.2873563E+00  0.0000000E+00  0.1111111E-01
   1      -17.365453
   2      -14.932341
   3      -13.289274
   4       -4.823601
   5       -1.929750
   6        7.386524
   7        7.693405
   8        9.045909
 
  0.2758620E+00  0.2758620E+00  0.0000000E+00  0.1111111E-01
   1      -17.758584
   2      -14.633564
   3      -13.018021
   4       -5.219115
   5       -1.522126
   6        7.116743
   7        7.291230
   8        8.416327
 
  0.2643678E+00  0.2643678E+00  0.0000000E+00  0.1111111E-01
   1      -18.147885
   2      -14.320231
   3      -12.725344
   4       -5.618437
   5       -1.098067
   6        6.549945
   7        7.031211
   8        7.789297
 
  0.2528735E+00  0.2528735E+00  0.0000000E+00  0.1111111E-01
   1      -18.529268
   2      -13.992804
   3      -12.415260
   4       -6.016820
   5       -0.657553
   6        5.999041
   7        6.638293
   8        7.200561
 
  0.2413793E+00  0.2413793E+00  0.0000000E+00  0.1111111E-01
   1      -18.900162
   2      -13.651584
   3      -12.091096
   4       -6.411663
   5       -0.201772
   6        5.467131
   7        6.182734
   8        6.637878
 
  0.2298850E+00  0.2298850E+00  0.0000000E+00  0.1111111E-01
   1      -19.258696
   2      -13.297106
   3      -11.754992
   4       -6.799233
   5        0.268342
   6        4.956330
   7        5.709772
   8        6.101331
 
  0.2183908E+00  0.2183908E+00  0.0000000E+00  0.1111111E-01
   1      -19.603525
   2      -12.929784
   3      -11.409173
   4       -7.177494
   5        0.750951
   6        4.467941
   7        5.240501
   8        5.590928
 
  0.2068965E+00  0.2068965E+00  0.0000000E+00  0.1111111E-01
   1      -19.933706
   2      -12.550469
   3      -11.055819
   4       -7.544523
   5        1.243886
   6        4.002713
   7        4.784749
   8        5.106674
 
  0.1954023E+00  0.1954023E+00  0.0000000E+00  0.1111111E-01
   1      -20.248455
   2      -12.159934
   3      -10.696949
   4       -7.898268
   5        1.746832
   6        3.561291
   7        4.347511
   8        4.648582
 
  0.1839080E+00  0.1839080E+00  0.0000000E+00  0.1111111E-01
   1      -20.547164
   2      -11.758845
   3      -10.334644
   4       -8.237154
   5        2.258364
   6        3.144105
   7        3.931475
   8        4.216650
 
  0.1724138E+00  0.1724138E+00  0.0000000E+00  0.1111111E-01
   1      -20.829343
   2      -11.348760
   3       -9.971204
   4       -8.559907
   5        2.751468
   6        2.772513
   7        3.538174
   8        3.810893
 
  0.1609195E+00  0.1609195E+00  0.0000000E+00  0.1111111E-01
   1      -21.094599
   2      -10.930831
   3       -9.608902
   4       -8.865420
   5        2.383605
   6        3.168600
   7        3.330339
   8        3.431367
 
  0.1494253E+00  0.1494253E+00  0.0000000E+00  0.1111111E-01
   1      -21.342602
   2      -10.506926
   3       -9.250633
   4       -9.152857
   5        2.040704
   6        2.823339
   7        3.077889
   8        3.294336
 
  0.1379310E+00  0.1379310E+00  0.0000000E+00  0.1111111E-01
   1      -21.573076
   2      -10.079130
   3       -9.421425
   4       -8.899144
   5        1.722888
   6        2.502834
   7        2.750651
   8        2.968707
 
  0.1264368E+00  0.1264368E+00  0.0000000E+00  0.1111111E-01
   1      -21.785791
   2       -9.670434
   3       -9.649976
   4       -8.557369
   5        1.430287
   6        2.207391
   7        2.449591
   8        2.669015
 
  0.1149425E+00  0.1149425E+00  0.0000000E+00  0.1111111E-01
   1      -21.980545
   2       -9.899279
   3       -9.222399
   4       -8.228857
   5        1.162990
   6        1.937226
   7        2.174708
   8        2.395302
 
  0.1034483E+00  0.1034483E+00  0.0000000E+00  0.1111111E-01
   1      -22.157179
   2      -10.107797
   3       -8.800920
   4       -7.916541
   5        0.921048
   6        1.692445
   7        1.926005
   8        2.147583
 
  0.9195401E-01  0.9195401E-01  0.0000000E+00  0.1111111E-01
   1      -22.315549
   2      -10.295119
   3       -8.389756
   4       -7.624429
   5        0.704523
   6        1.473240
   7        1.703481
   8        1.925901
 
  0.8045976E-01  0.8045976E-01  0.0000000E+00  0.1111111E-01
   1      -22.455548
   2      -10.461266
   3       -7.994773
   4       -7.356057
   5        0.513430
   6        1.279643
   7        1.507137
   8        1.730260
 
  0.6896551E-01  0.6896551E-01  0.0000000E+00  0.1111111E-01
   1      -22.577063
   2      -10.605603
   3       -7.623381
   4       -7.114634
   5        0.347818
   6        1.111777
   7        1.336972
   8        1.560689
 
  0.5747126E-01  0.5747126E-01  0.0000000E+00  0.1111111E-01
   1      -22.680018
   2      -10.728151
   3       -7.284608
   4       -6.904137
   5        0.207687
   6        0.969654
   7        1.192987
   8        1.417187
 
  0.4597701E-01  0.4597701E-01  0.0000000E+00  0.1111111E-01
   1      -22.764342
   2      -10.828775
   3       -6.986617
   4       -6.727264
   5        0.093047
   6        0.853308
   7        1.075182
   8        1.299761
 
  0.3448276E-01  0.3448276E-01  0.0000000E+00  0.1111111E-01
   1      -22.829980
   2      -10.907093
   3       -6.740418
   4       -6.586126
   5        0.003899
   6        0.762803
   7        0.983556
   8        1.208428
 
  0.2298850E-01  0.2298850E-01  0.0000000E+00  0.1111111E-01
   1      -22.876890
   2      -10.962973
   3       -6.555299
   4       -6.483956
   5       -0.059761
   6        0.698162
   7        0.918109
   8        1.143193
 
  0.1149425E-01  0.1149425E-01  0.0000000E+00  0.1111111E-01
   1      -22.905047
   2      -10.996458
   3       -6.439916
   4       -6.421710
   5       -0.097957
   6        0.659383
   7        0.878841
   8        1.104054
 
  0.0000000E+00  0.0000000E+00  0.0000000E+00  0.1111111E-01
   1      -22.914435
   2      -11.007709
   3       -6.400990
   4       -6.400944
   5       -0.110693
   6        0.646442
   7        0.865752
   8        1.091003
