       N       E                     dE             d eps       ncg     rms          rms(c)
DAV:   1     0.264687100915E+02    0.26469E+02   -0.24414E+03  1728   0.545E+02
DAV:   2    -0.141306805893E+02   -0.40599E+02   -0.29970E+02  2344   0.787E+01
DAV:   3    -0.172710425109E+02   -0.31404E+01   -0.28960E+01  1952   0.362E+01
DAV:   4    -0.173300422651E+02   -0.59000E-01   -0.58971E-01  2296   0.402E+00
DAV:   5    -0.173311980670E+02   -0.11558E-02   -0.11558E-02  2272   0.375E-01
DAV:   6    -0.173312265241E+02   -0.28457E-04   -0.28457E-04  2432   0.434E-02
DAV:   7    -0.173312266628E+02   -0.13874E-06   -0.13890E-06  2240   0.341E-03
   1 F= -.17331227E+02 E0= -.17330735E+02  d E =-.147622E-02
