PROCAR lm decomposed
# of k-points:   90         # of bands:   8         # of ions:   2

 k-point    1 :    0.00000000 0.00000000 0.00000000     weight = 0.01111111

band   1 # energy  -22.91443547 # occ.  2.00000000
 
ion      s     py     pz     px    dxy    dyz    dz2    dxz    dx2    tot
  1  0.324  0.000  0.000  0.000  0.000  0.000  0.000  0.000  0.000  0.324
  2  0.324  0.000  0.000  0.000  0.000  0.000  0.000  0.000  0.000  0.324
tot  0.647  0.000  0.000  0.000  0.000  0.000  0.000  0.000  0.000  0.647
 
band   2 # energy  -11.00770898 # occ.  2.00000000
 
ion      s     py     pz     px    dxy    dyz    dz2    dxz    dx2    tot
  1  0.000  0.000  0.216  0.000  0.000  0.000  0.000  0.000  0.000  0.216
  2  0.000  0.000  0.216  0.000  0.000  0.000  0.000  0.000  0.000  0.216
tot  0.000  0.000  0.432  0.000  0.000  0.000  0.000  0.000  0.000  0.432
 
band   3 # energy   -6.40099000 # occ.  2.00000000
 
ion      s     py     pz     px    dxy    dyz    dz2    dxz    dx2    tot
  1  0.000  0.027  0.000  0.386  0.000  0.000  0.000  0.000  0.000  0.414
  2  0.000  0.027  0.000  0.386  0.000  0.000  0.000  0.000  0.000  0.414
tot  0.000  0.055  0.000  0.772  0.000  0.000  0.000  0.000  0.000  0.827
 
band   4 # energy   -6.40094431 # occ.  2.00000000
 
ion      s     py     pz     px    dxy    dyz    dz2    dxz    dx2    tot
  1  0.000  0.386  0.000  0.027  0.000  0.000  0.000  0.000  0.000  0.414
  2  0.000  0.386  0.000  0.027  0.000  0.000  0.000  0.000  0.000  0.414
tot  0.000  0.772  0.000  0.055  0.000  0.000  0.000  0.000  0.000  0.827
 
band   5 # energy   -0.11069272 # occ.  0.00000000
 
ion      s     py     pz     px    dxy    dyz    dz2    dxz    dx2    tot
  1  0.010  0.000  0.000  0.000  0.000  0.000  0.000  0.000  0.000  0.010
  2  0.010  0.000  0.000  0.000  0.000  0.000  0.000  0.000  0.000  0.010
tot  0.020  0.000  0.000  0.000  0.000  0.000  0.000  0.000  0.000  0.020
 
band   6 # energy    0.64644245 # occ.  0.00000000
 
ion      s     py     pz     px    dxy    dyz    dz2    dxz    dx2    tot
  1  0.000  0.000  0.009  0.000  0.000  0.000  0.000  0.000  0.000  0.009
  2  0.000  0.000  0.009  0.000  0.000  0.000  0.000  0.000  0.000  0.009
tot  0.000  0.000  0.019  0.000  0.000  0.000  0.000  0.000  0.000  0.019
 
band   7 # energy    0.86575193 # occ.  0.00000000
 
ion      s     py     pz     px    dxy    dyz    dz2    dxz    dx2    tot
  1  0.000  0.000  0.000  0.000  0.000  0.000  0.000  0.000  0.000  0.000
  2  0.000  0.000  0.000  0.000  0.000  0.000  0.000  0.000  0.000  0.000
tot  0.000  0.000  0.000  0.000  0.000  0.000  0.000  0.000  0.000  0.000
 
band   8 # energy    1.09100340 # occ.  0.00000000
 
ion      s     py     pz     px    dxy    dyz    dz2    dxz    dx2    tot
  1  0.000  0.000  0.003  0.000  0.000  0.000  0.000  0.000  0.000  0.003
  2  0.000  0.000  0.003  0.000  0.000  0.000  0.000  0.000  0.000  0.003
tot  0.000  0.000  0.005  0.000  0.000  0.000  0.000  0.000  0.000  0.005
 

 k-point    2 :    0.01724138 0.00000000 0.00000000     weight = 0.01111111

band   1 # energy  -22.90739344 # occ.  2.00000000
 
ion      s     py     pz     px    dxy    dyz    dz2    dxz    dx2    tot
  1  0.324  0.000  0.000  0.000  0.000  0.000  0.000  0.000  0.000  0.324
  2  0.324  0.000  0.000  0.000  0.000  0.000  0.000  0.000  0.000  0.324
tot  0.647  0.000  0.000  0.000  0.000  0.000  0.000  0.000  0.000  0.647
 
band   2 # energy  -10.99925163 # occ.  2.00000000
 
ion      s     py     pz     px    dxy    dyz    dz2    dxz    dx2    tot
  1  0.000  0.000  0.216  0.000  0.000  0.000  0.000  0.000  0.000  0.216
  2  0.000  0.000  0.216  0.000  0.000  0.000  0.000  0.000  0.000  0.216
tot  0.000  0.000  0.432  0.000  0.000  0.000  0.000  0.000  0.000  0.432
 
band   3 # energy   -6.43023526 # occ.  2.00000000
 
ion      s     py     pz     px    dxy    dyz    dz2    dxz    dx2    tot
  1  0.001  0.103  0.000  0.310  0.000  0.000  0.000  0.000  0.000  0.413
  2  0.001  0.103  0.000  0.310  0.000  0.000  0.000  0.000  0.000  0.413
tot  0.002  0.205  0.000  0.620  0.000  0.000  0.000  0.000  0.000  0.827
 
band   4 # energy   -6.41637733 # occ.  2.00000000
 
ion      s     py     pz     px    dxy    dyz    dz2    dxz    dx2    tot
  1  0.000  0.311  0.000  0.103  0.000  0.000  0.000  0.000  0.000  0.413
  2  0.000  0.311  0.000  0.103  0.000  0.000  0.000  0.000  0.000  0.413
tot  0.000  0.621  0.000  0.206  0.000  0.000  0.000  0.000  0.000  0.827
 
band   5 # energy   -0.10113975 # occ.  0.00000000
 
ion      s     py     pz     px    dxy    dyz    dz2    dxz    dx2    tot
  1  0.010  0.000  0.000  0.000  0.000  0.000  0.000  0.000  0.000  0.010
  2  0.010  0.000  0.000  0.000  0.000  0.000  0.000  0.000  0.000  0.010
tot  0.020  0.000  0.000  0.000  0.000  0.000  0.000  0.000  0.000  0.020
 
band   6 # energy    0.65615048 # occ.  0.00000000
 
ion      s     py     pz     px    dxy    dyz    dz2    dxz    dx2    tot
  1  0.000  0.000  0.009  0.000  0.000  0.000  0.000  0.000  0.000  0.009
  2  0.000  0.000  0.009  0.000  0.000  0.000  0.000  0.000  0.000  0.009
tot  0.000  0.000  0.019  0.000  0.000  0.000  0.000  0.000  0.000  0.019
 
band   7 # energy    0.87556888 # occ.  0.00000000
 
ion      s     py     pz     px    dxy    dyz    dz2    dxz    dx2    tot
  1  0.000  0.000  0.000  0.000  0.000  0.000  0.000  0.000  0.000  0.000
  2  0.000  0.000  0.000  0.000  0.000  0.000  0.000  0.000  0.000  0.000
tot  0.000  0.000  0.000  0.000  0.000  0.000  0.000  0.000  0.000  0.000
 
band   8 # energy    1.10079199 # occ.  0.00000000
 
ion      s     py     pz     px    dxy    dyz    dz2    dxz    dx2    tot
  1  0.000  0.000  0.003  0.000  0.000  0.000  0.000  0.000  0.000  0.003
  2  0.000  0.000  0.003  0.000  0.000  0.000  0.000  0.000  0.000  0.003
tot  0.000  0.000  0.005  0.000  0.000  0.000  0.000  0.000  0.000  0.005
 

 k-point    3 :    0.03448276 0.00000000 0.00000000     weight = 0.01111111

band   1 # energy  -22.88627672 # occ.  2.00000000
 
ion      s     py     pz     px    dxy    dyz    dz2    dxz    dx2    tot
  1  0.323  0.000  0.000  0.000  0.000  0.000  0.000  0.000  0.000  0.324
  2  0.323  0.000  0.000  0.000  0.000  0.000  0.000  0.000  0.000  0.324
tot  0.646  0.000  0.000  0.001  0.000  0.000  0.000  0.000  0.000  0.648
 
band   2 # energy  -10.97422096 # occ.  2.00000000
 
ion      s     py     pz     px    dxy    dyz    dz2    dxz    dx2    tot
  1  0.000  0.000  0.216  0.000  0.000  0.000  0.000  0.000  0.000  0.216
  2  0.000  0.000  0.216  0.000  0.000  0.000  0.000  0.000  0.000  0.216
tot  0.000  0.000  0.432  0.000  0.000  0.000  0.000  0.000  0.000  0.432
 
band   3 # energy   -6.51782381 # occ.  2.00000000
 
ion      s     py     pz     px    dxy    dyz    dz2    dxz    dx2    tot
  1  0.003  0.102  0.000  0.307  0.000  0.000  0.000  0.000  0.000  0.412
  2  0.003  0.102  0.000  0.307  0.000  0.000  0.000  0.000  0.000  0.412
tot  0.007  0.204  0.000  0.614  0.000  0.000  0.000  0.000  0.000  0.825
 
band   4 # energy   -6.46270179 # occ.  2.00000000
 
ion      s     py     pz     px    dxy    dyz    dz2    dxz    dx2    tot
  1  0.000  0.310  0.000  0.103  0.000  0.000  0.000  0.000  0.000  0.413
  2  0.000  0.310  0.000  0.103  0.000  0.000  0.000  0.000  0.000  0.413
tot  0.000  0.619  0.000  0.206  0.000  0.000  0.000  0.000  0.000  0.826
 
band   5 # energy   -0.07250014 # occ.  0.00000000
 
ion      s     py     pz     px    dxy    dyz    dz2    dxz    dx2    tot
  1  0.010  0.000  0.000  0.000  0.000  0.000  0.000  0.000  0.000  0.010
  2  0.010  0.000  0.000  0.000  0.000  0.000  0.000  0.000  0.000  0.010
tot  0.020  0.000  0.000  0.000  0.000  0.000  0.000  0.000  0.000  0.020
 
band   6 # energy    0.68522215 # occ.  0.00000000
 
ion      s     py     pz     px    dxy    dyz    dz2    dxz    dx2    tot
  1  0.000  0.000  0.009  0.000  0.000  0.000  0.000  0.000  0.000  0.009
  2  0.000  0.000  0.009  0.000  0.000  0.000  0.000  0.000  0.000  0.009
tot  0.000  0.000  0.019  0.000  0.000  0.000  0.000  0.000  0.000  0.019
 
band   7 # energy    0.90501954 # occ.  0.00000000
 
ion      s     py     pz     px    dxy    dyz    dz2    dxz    dx2    tot
  1  0.000  0.000  0.000  0.000  0.000  0.000  0.000  0.000  0.000  0.000
  2  0.000  0.000  0.000  0.000  0.000  0.000  0.000  0.000  0.000  0.000
tot  0.000  0.000  0.000  0.000  0.000  0.000  0.000  0.000  0.000  0.000
 
band   8 # energy    1.13014253 # occ.  0.00000000
 
ion      s     py     pz     px    dxy    dyz    dz2    dxz    dx2    tot
  1  0.000  0.000  0.003  0.000  0.000  0.000  0.000  0.000  0.000  0.003
  2  0.000  0.000  0.003  0.000  0.000  0.000  0.000  0.000  0.000  0.003
tot  0.000  0.000  0.005  0.000  0.000  0.000  0.000  0.000  0.000  0.005
 

 k-point    4 :    0.05172414 0.00000000 0.00000000     weight = 0.01111111

band   1 # energy  -22.85108696 # occ.  2.00000000
 
ion      s     py     pz     px    dxy    dyz    dz2    dxz    dx2    tot
  1  0.323  0.000  0.000  0.001  0.000  0.000  0.000  0.000  0.000  0.324
  2  0.323  0.000  0.000  0.001  0.000  0.000  0.000  0.000  0.000  0.324
tot  0.645  0.001  0.000  0.002  0.000  0.000  0.000  0.000  0.000  0.648
 
band   2 # energy  -10.93217375 # occ.  2.00000000
 
ion      s     py     pz     px    dxy    dyz    dz2    dxz    dx2    tot
  1  0.000  0.000  0.216  0.000  0.000  0.000  0.000  0.000  0.000  0.216
  2  0.000  0.000  0.216  0.000  0.000  0.000  0.000  0.000  0.000  0.216
tot  0.000  0.000  0.433  0.000  0.000  0.000  0.000  0.000  0.000  0.433
 
band   3 # energy   -6.66059053 # occ.  2.00000000
 
ion      s     py     pz     px    dxy    dyz    dz2    dxz    dx2    tot
  1  0.008  0.101  0.000  0.303  0.000  0.000  0.000  0.000  0.000  0.411
  2  0.008  0.101  0.000  0.303  0.000  0.000  0.000  0.000  0.000  0.411
tot  0.015  0.202  0.000  0.605  0.000  0.000  0.000  0.000  0.000  0.822
 
band   4 # energy   -6.53753484 # occ.  2.00000000
 
ion      s     py     pz     px    dxy    dyz    dz2    dxz    dx2    tot
  1  0.000  0.309  0.000  0.103  0.000  0.000  0.000  0.000  0.000  0.412
  2  0.000  0.309  0.000  0.103  0.000  0.000  0.000  0.000  0.000  0.412
tot  0.000  0.618  0.000  0.206  0.000  0.000  0.000  0.000  0.000  0.824
 
band   5 # energy   -0.02475451 # occ.  0.00000000
 
ion      s     py     pz     px    dxy    dyz    dz2    dxz    dx2    tot
  1  0.010  0.000  0.000  0.000  0.000  0.000  0.000  0.000  0.000  0.010
  2  0.010  0.000  0.000  0.000  0.000  0.000  0.000  0.000  0.000  0.010
tot  0.019  0.000  0.000  0.000  0.000  0.000  0.000  0.000  0.000  0.020
 
band   6 # energy    0.73372361 # occ.  0.00000000
 
ion      s     py     pz     px    dxy    dyz    dz2    dxz    dx2    tot
  1  0.000  0.000  0.009  0.000  0.000  0.000  0.000  0.000  0.000  0.009
  2  0.000  0.000  0.009  0.000  0.000  0.000  0.000  0.000  0.000  0.009
tot  0.000  0.000  0.019  0.000  0.000  0.000  0.000  0.000  0.000  0.019
 
band   7 # energy    0.95410424 # occ.  0.00000000
 
ion      s     py     pz     px    dxy    dyz    dz2    dxz    dx2    tot
  1  0.000  0.000  0.000  0.000  0.000  0.000  0.000  0.000  0.000  0.000
  2  0.000  0.000  0.000  0.000  0.000  0.000  0.000  0.000  0.000  0.000
tot  0.000  0.000  0.000  0.000  0.000  0.000  0.000  0.000  0.000  0.000
 
band   8 # energy    1.17907454 # occ.  0.00000000
 
ion      s     py     pz     px    dxy    dyz    dz2    dxz    dx2    tot
  1  0.000  0.000  0.003  0.000  0.000  0.000  0.000  0.000  0.000  0.003
  2  0.000  0.000  0.003  0.000  0.000  0.000  0.000  0.000  0.000  0.003
tot  0.000  0.000  0.005  0.000  0.000  0.000  0.000  0.000  0.000  0.005
 

 k-point    5 :    0.06896552 0.00000000 0.00000000     weight = 0.01111111

band   1 # energy  -22.80184418 # occ.  2.00000000
 
ion      s     py     pz     px    dxy    dyz    dz2    dxz    dx2    tot
  1  0.322  0.001  0.000  0.002  0.000  0.000  0.000  0.000  0.000  0.324
  2  0.322  0.001  0.000  0.002  0.000  0.000  0.000  0.000  0.000  0.324
tot  0.644  0.001  0.000  0.004  0.000  0.000  0.000  0.000  0.000  0.648
 
band   2 # energy  -10.87345313 # occ.  2.00000000
 
ion      s     py     pz     px    dxy    dyz    dz2    dxz    dx2    tot
  1  0.000  0.000  0.216  0.000  0.000  0.000  0.000  0.000  0.000  0.216
  2  0.000  0.000  0.216  0.000  0.000  0.000  0.000  0.000  0.000  0.216
tot  0.000  0.000  0.433  0.000  0.000  0.000  0.000  0.000  0.000  0.433
 
band   3 # energy   -6.85538994 # occ.  2.00000000
 
ion      s     py     pz     px    dxy    dyz    dz2    dxz    dx2    tot
  1  0.013  0.099  0.000  0.297  0.000  0.000  0.000  0.000  0.000  0.409
  2  0.013  0.099  0.000  0.297  0.000  0.000  0.000  0.000  0.000  0.409
tot  0.026  0.198  0.000  0.594  0.000  0.000  0.000  0.000  0.000  0.819
 
band   4 # energy   -6.63872163 # occ.  2.00000000
 
ion      s     py     pz     px    dxy    dyz    dz2    dxz    dx2    tot
  1  0.000  0.308  0.000  0.103  0.000  0.000  0.000  0.000  0.000  0.411
  2  0.000  0.308  0.000  0.103  0.000  0.000  0.000  0.000  0.000  0.411
tot  0.000  0.616  0.000  0.205  0.000  0.000  0.000  0.000  0.000  0.821
 
band   5 # energy    0.04209779 # occ.  0.00000000
 
ion      s     py     pz     px    dxy    dyz    dz2    dxz    dx2    tot
  1  0.010  0.000  0.000  0.000  0.000  0.000  0.000  0.000  0.000  0.010
  2  0.010  0.000  0.000  0.000  0.000  0.000  0.000  0.000  0.000  0.010
tot  0.019  0.000  0.000  0.000  0.000  0.000  0.000  0.000  0.000  0.020
 
band   6 # energy    0.80160185 # occ.  0.00000000
 
ion      s     py     pz     px    dxy    dyz    dz2    dxz    dx2    tot
  1  0.000  0.000  0.009  0.000  0.000  0.000  0.000  0.000  0.000  0.009
  2  0.000  0.000  0.009  0.000  0.000  0.000  0.000  0.000  0.000  0.009
tot  0.000  0.000  0.019  0.000  0.000  0.000  0.000  0.000  0.000  0.019
 
band   7 # energy    1.02282308 # occ.  0.00000000
 
ion      s     py     pz     px    dxy    dyz    dz2    dxz    dx2    tot
  1  0.000  0.000  0.000  0.000  0.000  0.000  0.000  0.000  0.000  0.000
  2  0.000  0.000  0.000  0.000  0.000  0.000  0.000  0.000  0.000  0.000
tot  0.000  0.000  0.000  0.000  0.000  0.000  0.000  0.000  0.000  0.000
 
band   8 # energy    1.24757334 # occ.  0.00000000
 
ion      s     py     pz     px    dxy    dyz    dz2    dxz    dx2    tot
  1  0.000  0.000  0.003  0.000  0.000  0.000  0.000  0.000  0.000  0.003
  2  0.000  0.000  0.003  0.000  0.000  0.000  0.000  0.000  0.000  0.003
tot  0.000  0.000  0.005  0.000  0.000  0.000  0.000  0.000  0.000  0.005
 

 k-point    6 :    0.08620690 0.00000000 0.00000000     weight = 0.01111111

band   1 # energy  -22.73856868 # occ.  2.00000000
 
ion      s     py     pz     px    dxy    dyz    dz2    dxz    dx2    tot
  1  0.321  0.001  0.000  0.003  0.000  0.000  0.000  0.000  0.000  0.325
  2  0.321  0.001  0.000  0.003  0.000  0.000  0.000  0.000  0.000  0.325
tot  0.642  0.002  0.000  0.006  0.000  0.000  0.000  0.000  0.000  0.649
 
band   2 # energy  -10.79796362 # occ.  2.00000000
 
ion      s     py     pz     px    dxy    dyz    dz2    dxz    dx2    tot
  1  0.000  0.000  0.217  0.000  0.000  0.000  0.000  0.000  0.000  0.217
  2  0.000  0.000  0.217  0.000  0.000  0.000  0.000  0.000  0.000  0.217
tot  0.000  0.000  0.433  0.000  0.000  0.000  0.000  0.000  0.000  0.433
 
band   3 # energy   -7.09740550 # occ.  2.00000000
 
ion      s     py     pz     px    dxy    dyz    dz2    dxz    dx2    tot
  1  0.020  0.097  0.000  0.291  0.000  0.000  0.000  0.000  0.000  0.407
  2  0.020  0.097  0.000  0.291  0.000  0.000  0.000  0.000  0.000  0.407
tot  0.039  0.194  0.000  0.581  0.000  0.000  0.000  0.000  0.000  0.814
 
band   4 # energy   -6.76271545 # occ.  2.00000000
 
ion      s     py     pz     px    dxy    dyz    dz2    dxz    dx2    tot
  1  0.000  0.307  0.000  0.102  0.000  0.000  0.000  0.000  0.000  0.409
  2  0.000  0.307  0.000  0.102  0.000  0.000  0.000  0.000  0.000  0.409
tot  0.000  0.614  0.000  0.205  0.000  0.000  0.000  0.000  0.000  0.819
 
band   5 # energy    0.12806096 # occ.  0.00000000
 
ion      s     py     pz     px    dxy    dyz    dz2    dxz    dx2    tot
  1  0.009  0.000  0.000  0.000  0.000  0.000  0.000  0.000  0.000  0.010
  2  0.009  0.000  0.000  0.000  0.000  0.000  0.000  0.000  0.000  0.010
tot  0.019  0.000  0.000  0.001  0.000  0.000  0.000  0.000  0.000  0.020
 
band   6 # energy    0.88886683 # occ.  0.00000000
 
ion      s     py     pz     px    dxy    dyz    dz2    dxz    dx2    tot
  1  0.000  0.000  0.009  0.000  0.000  0.000  0.000  0.000  0.000  0.009
  2  0.000  0.000  0.009  0.000  0.000  0.000  0.000  0.000  0.000  0.009
tot  0.000  0.000  0.019  0.000  0.000  0.000  0.000  0.000  0.000  0.019
 
band   7 # energy    1.11117617 # occ.  0.00000000
 
ion      s     py     pz     px    dxy    dyz    dz2    dxz    dx2    tot
  1  0.000  0.000  0.000  0.000  0.000  0.000  0.000  0.000  0.000  0.000
  2  0.000  0.000  0.000  0.000  0.000  0.000  0.000  0.000  0.000  0.000
tot  0.000  0.000  0.000  0.000  0.000  0.000  0.000  0.000  0.000  0.000
 
band   8 # energy    1.33564249 # occ.  0.00000000
 
ion      s     py     pz     px    dxy    dyz    dz2    dxz    dx2    tot
  1  0.000  0.000  0.003  0.000  0.000  0.000  0.000  0.000  0.000  0.003
  2  0.000  0.000  0.003  0.000  0.000  0.000  0.000  0.000  0.000  0.003
tot  0.000  0.000  0.005  0.000  0.000  0.000  0.000  0.000  0.000  0.005
 

 k-point    7 :    0.10344828 0.00000000 0.00000000     weight = 0.01111111

band   1 # energy  -22.66128836 # occ.  2.00000000
 
ion      s     py     pz     px    dxy    dyz    dz2    dxz    dx2    tot
  1  0.320  0.001  0.000  0.004  0.000  0.000  0.000  0.000  0.000  0.325
  2  0.320  0.001  0.000  0.004  0.000  0.000  0.000  0.000  0.000  0.325
tot  0.639  0.003  0.000  0.008  0.000  0.000  0.000  0.000  0.000  0.650
 
band   2 # energy  -10.70568264 # occ.  2.00000000
 
ion      s     py     pz     px    dxy    dyz    dz2    dxz    dx2    tot
  1  0.000  0.000  0.217  0.000  0.000  0.000  0.000  0.000  0.000  0.217
  2  0.000  0.000  0.217  0.000  0.000  0.000  0.000  0.000  0.000  0.217
tot  0.000  0.000  0.434  0.000  0.000  0.000  0.000  0.000  0.000  0.434
 
band   3 # energy   -7.38117826 # occ.  2.00000000
 
ion      s     py     pz     px    dxy    dyz    dz2    dxz    dx2    tot
  1  0.027  0.094  0.000  0.283  0.000  0.000  0.000  0.000  0.000  0.405
  2  0.027  0.094  0.000  0.283  0.000  0.000  0.000  0.000  0.000  0.405
tot  0.054  0.189  0.000  0.567  0.000  0.000  0.000  0.000  0.000  0.809
 
band   4 # energy   -6.90578795 # occ.  2.00000000
 
ion      s     py     pz     px    dxy    dyz    dz2    dxz    dx2    tot
  1  0.000  0.306  0.000  0.102  0.000  0.000  0.000  0.000  0.000  0.408
  2  0.000  0.306  0.000  0.102  0.000  0.000  0.000  0.000  0.000  0.408
tot  0.000  0.612  0.000  0.204  0.000  0.000  0.000  0.000  0.000  0.816
 
band   5 # energy    0.23313263 # occ.  0.00000000
 
ion      s     py     pz     px    dxy    dyz    dz2    dxz    dx2    tot
  1  0.009  0.000  0.000  0.001  0.000  0.000  0.000  0.000  0.000  0.010
  2  0.009  0.000  0.000  0.001  0.000  0.000  0.000  0.000  0.000  0.010
tot  0.019  0.000  0.000  0.001  0.000  0.000  0.000  0.000  0.000  0.020
 
band   6 # energy    0.99551656 # occ.  0.00000000
 
ion      s     py     pz     px    dxy    dyz    dz2    dxz    dx2    tot
  1  0.000  0.000  0.010  0.000  0.000  0.000  0.000  0.000  0.000  0.010
  2  0.000  0.000  0.010  0.000  0.000  0.000  0.000  0.000  0.000  0.010
tot  0.000  0.000  0.019  0.000  0.000  0.000  0.000  0.000  0.000  0.019
 
band   7 # energy    1.21916347 # occ.  0.00000000
 
ion      s     py     pz     px    dxy    dyz    dz2    dxz    dx2    tot
  1  0.000  0.000  0.000  0.000  0.000  0.000  0.000  0.000  0.000  0.000
  2  0.000  0.000  0.000  0.000  0.000  0.000  0.000  0.000  0.000  0.000
tot  0.000  0.000  0.000  0.000  0.000  0.000  0.000  0.000  0.000  0.000
 
band   8 # energy    1.44328254 # occ.  0.00000000
 
ion      s     py     pz     px    dxy    dyz    dz2    dxz    dx2    tot
  1  0.000  0.000  0.003  0.000  0.000  0.000  0.000  0.000  0.000  0.003
  2  0.000  0.000  0.003  0.000  0.000  0.000  0.000  0.000  0.000  0.003
tot  0.000  0.000  0.005  0.000  0.000  0.000  0.000  0.000  0.000  0.005
 

 k-point    8 :    0.12068966 0.00000000 0.00000000     weight = 0.01111111

band   1 # energy  -22.57004265 # occ.  2.00000000
 
ion      s     py     pz     px    dxy    dyz    dz2    dxz    dx2    tot
  1  0.318  0.002  0.000  0.005  0.000  0.000  0.000  0.000  0.000  0.325
  2  0.318  0.002  0.000  0.005  0.000  0.000  0.000  0.000  0.000  0.325
tot  0.636  0.004  0.000  0.011  0.000  0.000  0.000  0.000  0.000  0.651
 
band   2 # energy  -10.59716400 # occ.  2.00000000
 
ion      s     py     pz     px    dxy    dyz    dz2    dxz    dx2    tot
  1  0.000  0.000  0.217  0.000  0.000  0.000  0.000  0.000  0.000  0.217
  2  0.000  0.000  0.217  0.000  0.000  0.000  0.000  0.000  0.000  0.217
tot  0.000  0.000  0.435  0.000  0.000  0.000  0.000  0.000  0.000  0.435
 
band   3 # energy   -7.70186800 # occ.  2.00000000
 
ion      s     py     pz     px    dxy    dyz    dz2    dxz    dx2    tot
  1  0.035  0.092  0.000  0.275  0.000  0.000  0.000  0.000  0.000  0.402
  2  0.035  0.092  0.000  0.275  0.000  0.000  0.000  0.000  0.000  0.402
tot  0.070  0.183  0.000  0.551  0.000  0.000  0.000  0.000  0.000  0.804
 
band   4 # energy   -7.06460536 # occ.  2.00000000
 
ion      s     py     pz     px    dxy    dyz    dz2    dxz    dx2    tot
  1  0.000  0.305  0.000  0.102  0.000  0.000  0.000  0.000  0.000  0.406
  2  0.000  0.305  0.000  0.102  0.000  0.000  0.000  0.000  0.000  0.406
tot  0.000  0.610  0.000  0.203  0.000  0.000  0.000  0.000  0.000  0.813
 
band   5 # energy    0.35730442 # occ.  0.00000000
 
ion      s     py     pz     px    dxy    dyz    dz2    dxz    dx2    tot
  1  0.009  0.000  0.000  0.001  0.000  0.000  0.000  0.000  0.000  0.010
  2  0.009  0.000  0.000  0.001  0.000  0.000  0.000  0.000  0.000  0.010
tot  0.018  0.000  0.000  0.001  0.000  0.000  0.000  0.000  0.000  0.020
 
band   6 # energy    1.12146105 # occ.  0.00000000
 
ion      s     py     pz     px    dxy    dyz    dz2    dxz    dx2    tot
  1  0.000  0.000  0.010  0.000  0.000  0.000  0.000  0.000  0.000  0.010
  2  0.000  0.000  0.010  0.000  0.000  0.000  0.000  0.000  0.000  0.010
tot  0.000  0.000  0.019  0.000  0.000  0.000  0.000  0.000  0.000  0.019
 
band   7 # energy    1.34678490 # occ.  0.00000000
 
ion      s     py     pz     px    dxy    dyz    dz2    dxz    dx2    tot
  1  0.000  0.000  0.000  0.000  0.000  0.000  0.000  0.000  0.000  0.000
  2  0.000  0.000  0.000  0.000  0.000  0.000  0.000  0.000  0.000  0.000
tot  0.000  0.000  0.000  0.000  0.000  0.000  0.000  0.000  0.000  0.000
 
band   8 # energy    1.57046872 # occ.  0.00000000
 
ion      s     py     pz     px    dxy    dyz    dz2    dxz    dx2    tot
  1  0.000  0.000  0.003  0.000  0.000  0.000  0.000  0.000  0.000  0.003
  2  0.000  0.000  0.003  0.000  0.000  0.000  0.000  0.000  0.000  0.003
tot  0.000  0.000  0.005  0.000  0.000  0.000  0.000  0.000  0.000  0.005
 

 k-point    9 :    0.13793103 0.00000000 0.00000000     weight = 0.01111111

band   1 # energy  -22.46488189 # occ.  2.00000000
 
ion      s     py     pz     px    dxy    dyz    dz2    dxz    dx2    tot
  1  0.316  0.002  0.000  0.007  0.000  0.000  0.000  0.000  0.000  0.326
  2  0.316  0.002  0.000  0.007  0.000  0.000  0.000  0.000  0.000  0.326
tot  0.633  0.005  0.000  0.014  0.000  0.000  0.000  0.000  0.000  0.652
 
band   2 # energy  -10.47220212 # occ.  2.00000000
 
ion      s     py     pz     px    dxy    dyz    dz2    dxz    dx2    tot
  1  0.000  0.000  0.218  0.000  0.000  0.000  0.000  0.000  0.000  0.218
  2  0.000  0.000  0.218  0.000  0.000  0.000  0.000  0.000  0.000  0.218
tot  0.000  0.000  0.436  0.000  0.000  0.000  0.000  0.000  0.000  0.436
 
band   3 # energy   -8.05425239 # occ.  2.00000000
 
ion      s     py     pz     px    dxy    dyz    dz2    dxz    dx2    tot
  1  0.043  0.089  0.000  0.267  0.000  0.000  0.000  0.000  0.000  0.399
  2  0.043  0.089  0.000  0.267  0.000  0.000  0.000  0.000  0.000  0.399
tot  0.087  0.178  0.000  0.534  0.000  0.000  0.000  0.000  0.000  0.798
 
band   4 # energy   -7.23484708 # occ.  2.00000000
 
ion      s     py     pz     px    dxy    dyz    dz2    dxz    dx2    tot
  1  0.000  0.304  0.000  0.101  0.000  0.000  0.000  0.000  0.000  0.405
  2  0.000  0.304  0.000  0.101  0.000  0.000  0.000  0.000  0.000  0.405
tot  0.000  0.607  0.000  0.202  0.000  0.000  0.000  0.000  0.000  0.810
 
band   5 # energy    0.50055241 # occ.  0.00000000
 
ion      s     py     pz     px    dxy    dyz    dz2    dxz    dx2    tot
  1  0.009  0.000  0.000  0.001  0.000  0.000  0.000  0.000  0.000  0.010
  2  0.009  0.000  0.000  0.001  0.000  0.000  0.000  0.000  0.000  0.010
tot  0.018  0.001  0.000  0.002  0.000  0.000  0.000  0.000  0.000  0.020
 
band   6 # energy    1.26671580 # occ.  0.00000000
 
ion      s     py     pz     px    dxy    dyz    dz2    dxz    dx2    tot
  1  0.000  0.000  0.010  0.000  0.000  0.000  0.000  0.000  0.000  0.010
  2  0.000  0.000  0.010  0.000  0.000  0.000  0.000  0.000  0.000  0.010
tot  0.000  0.000  0.019  0.000  0.000  0.000  0.000  0.000  0.000  0.019
 
band   7 # energy    1.49404020 # occ.  0.00000000
 
ion      s     py     pz     px    dxy    dyz    dz2    dxz    dx2    tot
  1  0.000  0.000  0.000  0.000  0.000  0.000  0.000  0.000  0.000  0.000
  2  0.000  0.000  0.000  0.000  0.000  0.000  0.000  0.000  0.000  0.000
tot  0.000  0.000  0.000  0.000  0.000  0.000  0.000  0.000  0.000  0.000
 
band   8 # energy    1.71720736 # occ.  0.00000000
 
ion      s     py     pz     px    dxy    dyz    dz2    dxz    dx2    tot
  1  0.000  0.000  0.003  0.000  0.000  0.000  0.000  0.000  0.000  0.003
  2  0.000  0.000  0.003  0.000  0.000  0.000  0.000  0.000  0.000  0.003
tot  0.000  0.000  0.005  0.000  0.000  0.000  0.000  0.000  0.000  0.005
 

 k-point   10 :    0.15517241 0.00000000 0.00000000     weight = 0.01111111

band   1 # energy  -22.34585288 # occ.  2.00000000
 
ion      s     py     pz     px    dxy    dyz    dz2    dxz    dx2    tot
  1  0.314  0.003  0.000  0.009  0.000  0.000  0.000  0.000  0.000  0.327
  2  0.314  0.003  0.000  0.009  0.000  0.000  0.000  0.000  0.000  0.327
tot  0.629  0.006  0.000  0.018  0.000  0.000  0.000  0.000  0.000  0.653
 
band   2 # energy  -10.33111303 # occ.  2.00000000
 
ion      s     py     pz     px    dxy    dyz    dz2    dxz    dx2    tot
  1  0.000  0.000  0.218  0.000  0.000  0.000  0.000  0.000  0.000  0.218
  2  0.000  0.000  0.218  0.000  0.000  0.000  0.000  0.000  0.000  0.218
tot  0.000  0.000  0.437  0.000  0.000  0.000  0.000  0.000  0.000  0.437
 
band   3 # energy   -8.43337072 # occ.  2.00000000
 
ion      s     py     pz     px    dxy    dyz    dz2    dxz    dx2    tot
  1  0.052  0.086  0.000  0.258  0.000  0.000  0.000  0.000  0.000  0.396
  2  0.052  0.086  0.000  0.258  0.000  0.000  0.000  0.000  0.000  0.396
tot  0.104  0.172  0.000  0.516  0.000  0.000  0.000  0.000  0.000  0.792
 
band   4 # energy   -7.41353206 # occ.  2.00000000
 
ion      s     py     pz     px    dxy    dyz    dz2    dxz    dx2    tot
  1  0.000  0.303  0.000  0.101  0.000  0.000  0.000  0.000  0.000  0.403
  2  0.000  0.303  0.000  0.101  0.000  0.000  0.000  0.000  0.000  0.403
tot  0.000  0.605  0.000  0.202  0.000  0.000  0.000  0.000  0.000  0.807
 
band   5 # energy    0.66286348 # occ.  0.00000000
 
ion      s     py     pz     px    dxy    dyz    dz2    dxz    dx2    tot
  1  0.009  0.000  0.000  0.001  0.000  0.000  0.000  0.000  0.000  0.010
  2  0.009  0.000  0.000  0.001  0.000  0.000  0.000  0.000  0.000  0.010
tot  0.018  0.001  0.000  0.002  0.000  0.000  0.000  0.000  0.000  0.021
 
band   6 # energy    1.43120421 # occ.  0.00000000
 
ion      s     py     pz     px    dxy    dyz    dz2    dxz    dx2    tot
  1  0.000  0.000  0.010  0.000  0.000  0.000  0.000  0.000  0.000  0.010
  2  0.000  0.000  0.010  0.000  0.000  0.000  0.000  0.000  0.000  0.010
tot  0.000  0.000  0.020  0.000  0.000  0.000  0.000  0.000  0.000  0.020
 
band   7 # energy    1.66092916 # occ.  0.00000000
 
ion      s     py     pz     px    dxy    dyz    dz2    dxz    dx2    tot
  1  0.000  0.000  0.000  0.000  0.000  0.000  0.000  0.000  0.000  0.000
  2  0.000  0.000  0.000  0.000  0.000  0.000  0.000  0.000  0.000  0.000
tot  0.000  0.000  0.000  0.000  0.000  0.000  0.000  0.000  0.000  0.000
 
band   8 # energy    1.88347848 # occ.  0.00000000
 
ion      s     py     pz     px    dxy    dyz    dz2    dxz    dx2    tot
  1  0.000  0.000  0.003  0.000  0.000  0.000  0.000  0.000  0.000  0.003
  2  0.000  0.000  0.003  0.000  0.000  0.000  0.000  0.000  0.000  0.003
tot  0.000  0.000  0.005  0.000  0.000  0.000  0.000  0.000  0.000  0.005
 

 k-point   11 :    0.17241379 0.00000000 0.00000000     weight = 0.01111111

band   1 # energy  -22.21301204 # occ.  2.00000000
 
ion      s     py     pz     px    dxy    dyz    dz2    dxz    dx2    tot
  1  0.312  0.004  0.000  0.011  0.000  0.000  0.000  0.000  0.000  0.327
  2  0.312  0.004  0.000  0.011  0.000  0.000  0.000  0.000  0.000  0.327
tot  0.625  0.007  0.000  0.022  0.000  0.000  0.000  0.000  0.000  0.654
 
band   2 # energy  -10.17404160 # occ.  2.00000000
 
ion      s     py     pz     px    dxy    dyz    dz2    dxz    dx2    tot
  1  0.000  0.000  0.219  0.000  0.000  0.000  0.000  0.000  0.000  0.219
  2  0.000  0.000  0.219  0.000  0.000  0.000  0.000  0.000  0.000  0.219
tot  0.000  0.000  0.438  0.000  0.000  0.000  0.000  0.000  0.000  0.438
 
band   3 # energy   -8.83347446 # occ.  2.00000000
 
ion      s     py     pz     px    dxy    dyz    dz2    dxz    dx2    tot
  1  0.061  0.083  0.000  0.249  0.000  0.000  0.000  0.000  0.000  0.393