<?xml version="1.0" encoding="ISO-8859-1"?>
<modeling>
 <generator>
  <i name="program" type="string">vasp </i>
  <i name="version" type="string">5.3.2  </i>
  <i name="subversion" type="string">13Sep12 (build Nov 06 2012 17:49:15) complex                          parallel </i>
  <i name="platform" type="string">LinuxIFC </i>
  <i name="date" type="string">2014 04 03 </i>
  <i name="time" type="string">08:43:11 </i>
 </generator>
 <incar>
  <i type="string" name="SYSTEM"> "graphene"</i>
  <i type="string" name="PREC">accurate</i>
  <i type="int" name="ICHARG">    11</i>
  <i type="int" name="NELMIN">     4</i>
  <i name="EDIFF">      0.00000100</i>
  <i type="int" name="NSW">     0</i>
  <i name="SYMPREC">      0.00000010</i>
  <i type="int" name="ISMEAR">     1</i>
  <i name="SIGMA">      0.20000000</i>
  <i type="logical" name="LORBIT"> F  </i>
 </incar>
 <kpoints>
  <generation param="listgenerated">
   <i name="divisions" type="int">      30 </i>
   <v>       0.00000000       0.00000000       0.00000000 </v>
   <v>       0.50000000       0.00000000       0.00000000 </v>
   <v>       0.33333330       0.33333330       0.00000000 </v>
   <v>       0.00000000       0.00000000       0.00000000 </v>
  </generation>
  <varray name="kpointlist" >
   <v>       0.00000000       0.00000000       0.00000000 </v>
   <v>       0.01724138       0.00000000       0.00000000 </v>
   <v>       0.03448276       0.00000000       0.00000000 </v>
   <v>       0.05172414       0.00000000       0.00000000 </v>
   <v>       0.06896552       0.00000000       0.00000000 </v>
   <v>       0.08620690       0.00000000       0.00000000 </v>
   <v>       0.10344828       0.00000000       0.00000000 </v>
   <v>       0.12068966       0.00000000       0.00000000 </v>
   <v>       0.13793103       0.00000000       0.00000000 </v>
   <v>       0.15517241       0.00000000       0.00000000 </v>
   <v>       0.17241379       0.00000000       0.00000000 </v>
   <v>       0.18965517       0.00000000       0.00000000 </v>
   <v>       0.20689655       0.00000000       0.00000000 </v>
   <v>       0.22413793       0.00000000       0.00000000 </v>
   <v>       0.24137931       0.00000000       0.00000000 </v>
   <v>       0.25862069       0.00000000       0.00000000 </v>
   <v>       0.27586207       0.00000000       0.00000000 </v>
   <v>       0.29310345       0.00000000       0.00000000 </v>
   <v>       0.31034483       0.00000000       0.00000000 </v>
   <v>       0.32758621       0.00000000       0.00000000 </v>
   <v>       0.34482759       0.00000000       0.00000000 </v>
   <v>       0.36206897       0.00000000       0.00000000 </v>
   <v>       0.37931034       0.00000000       0.00000000 </v>
   <v>       0.39655172       0.00000000       0.00000000 </v>
   <v>       0.41379310       0.00000000       0.00000000 </v>
   <v>       0.43103448       0.00000000       0.00000000 </v>
   <v>       0.44827586       0.00000000       0.00000000 </v>
   <v>       0.46551724       0.00000000       0.00000000 </v>
   <v>       0.48275862       0.00000000       0.00000000 </v>
   <v>       0.50000000       0.00000000       0.00000000 </v>
   <v>       0.50000000       0.00000000       0.00000000 </v>
   <v>       0.49425287       0.01149425       0.00000000 </v>
   <v>       0.48850574       0.02298850       0.00000000 </v>
   <v>       0.48275862       0.03448276       0.00000000 </v>
   <v>       0.47701149       0.04597701       0.00000000 </v>
   <v>       0.47126436       0.05747126       0.00000000 </v>
   <v>       0.46551723       0.06896551       0.00000000 </v>
   <v>       0.45977011       0.08045976       0.00000000 </v>
   <v>       0.45402298       0.09195401       0.00000000 </v>
   <v>       0.44827585       0.10344827       0.00000000 </v>
   <v>       0.44252872       0.11494252       0.00000000 </v>
   <v>       0.43678160       0.12643677       0.00000000 </v>
   <v>       0.43103447       0.13793102       0.00000000 </v>
   <v>       0.42528734       0.14942527       0.00000000 </v>
   <v>       0.41954021       0.16091952       0.00000000 </v>
   <v>       0.41379309       0.17241378       0.00000000 </v>
   <v>       0.40804596       0.18390803       0.00000000 </v>
   <v>       0.40229883       0.19540228       0.00000000 </v>
   <v>       0.39655170       0.20689653       0.00000000 </v>
   <v>       0.39080458       0.21839078       0.00000000 </v>
   <v>       0.38505745       0.22988503       0.00000000 </v>
   <v>       0.37931032       0.24137929       0.00000000 </v>
   <v>       0.37356319       0.25287354       0.00000000 </v>
   <v>       0.36781607       0.26436779       0.00000000 </v>
   <v>       0.36206894       0.27586204       0.00000000 </v>
   <v>       0.35632181       0.28735629       0.00000000 </v>
   <v>       0.35057468       0.29885054       0.00000000 </v>
   <v>       0.34482756       0.31034480       0.00000000 </v>
   <v>       0.33908043       0.32183905       0.00000000 </v>
   <v>       0.33333330       0.33333330       0.00000000 </v>
   <v>       0.33333330       0.33333330       0.00000000 </v>
   <v>       0.32183905       0.32183905       0.00000000 </v>
   <v>       0.31034480       0.31034480       0.00000000 </v>
   <v>       0.29885054       0.29885054       0.00000000 </v>
   <v>       0.28735629       0.28735629       0.00000000 </v>
   <v>       0.27586204       0.27586204       0.00000000 </v>
   <v>       0.26436779       0.26436779       0.00000000 </v>
   <v>       0.25287354       0.25287354       0.00000000 </v>
   <v>       0.24137929       0.24137929       0.00000000 </v>
   <v>       0.22988503       0.22988503       0.00000000 </v>
   <v>       0.21839078       0.21839078       0.00000000 </v>
   <v>       0.20689653       0.20689653       0.00000000 </v>
   <v>       0.19540228       0.19540228       0.00000000 </v>
   <v>       0.18390803       0.18390803       0.00000000 </v>
   <v>       0.17241378       0.17241378       0.00000000 </v>
   <v>       0.16091952       0.16091952       0.00000000 </v>
   <v>       0.14942527       0.14942527       0.00000000 </v>
   <v>       0.13793102       0.13793102       0.00000000 </v>
   <v>       0.12643677       0.12643677       0.00000000 </v>
   <v>       0.11494252       0.11494252       0.00000000 </v>
   <v>       0.10344827       0.10344827       0.00000000 </v>
   <v>       0.09195401       0.09195401       0.00000000 </v>
   <v>       0.08045976       0.08045976       0.00000000 </v>
   <v>       0.06896551       0.06896551       0.00000000 </v>
   <v>       0.05747126       0.05747126       0.00000000 </v>
   <v>       0.04597701       0.04597701       0.00000000 </v>
   <v>       0.03448276       0.03448276       0.00000000 </v>
   <v>       0.02298850       0.02298850       0.00000000 </v>
   <v>       0.01149425       0.01149425       0.00000000 </v>
   <v>       0.00000000       0.00000000       0.00000000 </v>
  </varray>
  <varray name="weights" >
   <v>       0.01111111 </v>
   <v>       0.01111111 </v>
   <v>       0.01111111 </v>
   <v>       0.01111111 </v>
   <v>       0.01111111 </v>
   <v>       0.01111111 </v>
   <v>       0.01111111 </v>
   <v>       0.01111111 </v>
   <v>       0.01111111 </v>
   <v>       0.01111111 </v>
   <v>       0.01111111 </v>
   <v>       0.01111111 </v>
   <v>       0.01111111 </v>
   <v>       0.01111111 </v>
   <v>       0.01111111 </v>
   <v>       0.01111111 </v>
   <v>       0.01111111 </v>
   <v>       0.01111111 </v>
   <v>       0.01111111 </v>
   <v>       0.01111111 </v>
   <v>       0.01111111 </v>
   <v>       0.01111111 </v>
   <v>       0.01111111 </v>
   <v>       0.01111111 </v>
   <v>       0.01111111 </v>
   <v>       0.01111111 </v>
   <v>       0.01111111 </v>
   <v>       0.01111111 </v>
   <v>       0.01111111 </v>
   <v>       0.01111111 </v>
   <v>       0.01111111 </v>
   <v>       0.01111111 </v>
   <v>       0.01111111 </v>
   <v>       0.01111111 </v>
   <v>       0.01111111 </v>
   <v>       0.01111111 </v>
   <v>       0.01111111 </v>
   <v>       0.01111111 </v>
   <v>       0.01111111 </v>
   <v>       0.01111111 </v>
   <v>       0.01111111 </v>
   <v>       0.01111111 </v>
   <v>       0.01111111 </v>
   <v>       0.01111111 </v>
   <v>       0.01111111 </v>
   <v>       0.01111111 </v>
   <v>       0.01111111 </v>
   <v>       0.01111111 </v>
   <v>       0.01111111 </v>
   <v>       0.01111111 </v>
   <v>       0.01111111 </v>
   <v>       0.01111111 </v>
   <v>       0.01111111 </v>
   <v>       0.01111111 </v>
   <v>       0.01111111 </v>
   <v>       0.01111111 </v>
   <v>       0.01111111 </v>
   <v>       0.01111111 </v>
   <v>       0.01111111 </v>
   <v>       0.01111111 </v>
   <v>       0.01111111 </v>
   <v>       0.01111111 </v>
   <v>       0.01111111 </v>
   <v>       0.01111111 </v>
   <v>       0.01111111 </v>
   <v>       0.01111111 </v>
   <v>       0.01111111 </v>
   <v>       0.01111111 </v>
   <v>       0.01111111 </v>
   <v>       0.01111111 </v>
   <v>       0.01111111 </v>
   <v>       0.01111111 </v>
   <v>       0.01111111 </v>
   <v>       0.01111111 </v>
   <v>       0.01111111 </v>
   <v>       0.01111111 </v>
   <v>       0.01111111 </v>
   <v>       0.01111111 </v>
   <v>       0.01111111 </v>
   <v>       0.01111111 </v>
   <v>       0.01111111 </v>
   <v>       0.01111111 </v>
   <v>       0.01111111 </v>
   <v>       0.01111111 </v>
   <v>       0.01111111 </v>
   <v>       0.01111111 </v>
   <v>       0.01111111 </v>
   <v>       0.01111111 </v>
   <v>       0.01111111 </v>
   <v>       0.01111111 </v>
  </varray>
 </kpoints>
 <parameters>
  <separator name="general" >
   <i type="string" name="SYSTEM">"graphene"</i>
   <i type="logical" name="LCOMPAT"> F  </i>
  </separator>
  <separator name="electronic" >
   <i type="string" name="PREC">accura</i>
   <i name="ENMAX">    400.00000000</i>
   <i name="ENAUG">    644.87300000</i>
   <i name="EDIFF">      0.00000100</i>
   <i type="int" name="IALGO">    38</i>
   <i type="int" name="IWAVPR">    10</i>
   <i type="int" name="NBANDS">     8</i>
   <i name="NELECT">      8.00000000</i>
   <i type="int" name="TURBO">     0</i>
   <i type="int" name="IRESTART">     0</i>
   <i type="int" name="NREBOOT">     0</i>
   <i type="int" name="NMIN">     0</i>
   <i name="EREF">      0.00000000</i>
   <separator name="electronic smearing" >
    <i type="int" name="ISMEAR">     1</i>
    <i name="SIGMA">      0.20000000</i>
    <i name="KSPACING">      0.50000000</i>
    <i type="logical" name="KGAMMA"> T  </i>
   </separator>
   <separator name="electronic projectors" >
    <i type="logical" name="LREAL"> F  </i>
    <v name="ROPT">      0.00000000</v>
    <i type="int" name="LMAXPAW">  -100</i>
    <i type="int" name="LMAXMIX">     2</i>
    <i type="logical" name="NLSPLINE"> F  </i>
   </separator>
   <separator name="electronic startup" >
    <i type="int" name="ISTART">     0</i>
    <i type="int" name="ICHARG">    11</i>
    <i type="int" name="INIWAV">     1</i>
   </separator>
   <separator name="electronic spin" >
    <i type="int" name="ISPIN">     1</i>
    <i type="logical" name="LNONCOLLINEAR"> F  </i>
    <v name="MAGMOM">      1.00000000      1.00000000</v>
    <i name="NUPDOWN">     -1.00000000</i>
    <i type="logical" name="LSORBIT"> F  </i>
    <v name="SAXIS">      0.00000000      0.00000000      1.00000000</v>
    <i type="logical" name="LSPIRAL"> F  </i>
    <v name="QSPIRAL">      0.00000000      0.00000000      0.00000000</v>
    <i type="logical" name="LZEROZ"> F  </i>
   </separator>
   <separator name="electronic exchange-correlation" >
    <i type="logical" name="LASPH"> F  </i>
    <i type="logical" name="LMETAGGA"> F  </i>
   </separator>
   <separator name="electronic convergence" >
    <i type="int" name="NELM">    60</i>
    <i type="int" name="NELMDL">     0</i>
    <i type="int" name="NELMIN">     4</i>
    <i name="ENINI">    400.00000000</i>
    <separator name="electronic convergence detail" >
     <i type="logical" name="LDIAG"> T  </i>
     <i type="logical" name="LSUBROT"> T  </i>
     <i name="WEIMIN">      0.00000000</i>
     <i name="EBREAK">      0.00000003</i>
     <i name="DEPER">      0.30000000</i>
     <i type="int" name="NRMM">     4</i>
     <i name="TIME">      0.40000000</i>
    </separator>
   </separator>
   <separator name="electronic mixer" >
    <i name="AMIX">      0.40000000</i>
    <i name="BMIX">      1.00000000</i>
    <i name="AMIN">      0.10000000</i>
    <i name="AMIX_MAG">      1.60000000</i>
    <i name="BMIX_MAG">      1.00000000</i>
    <separator name="electronic mixer details" >
     <i type="int" name="IMIX">     4</i>
     <i type="int" name="MAXMIX">   -45</i>
     <i name="WC">    100.00000000</i>
     <i type="int" name="INIMIX">     1</i>
     <i type="int" name="MIXPRE">     1</i>
     <i type="int" name="MREMOVE">     5</i>
    </separator>
   </separator>
   <separator name="electronic dipolcorrection" >
    <i type="logical" name="LDIPOL"> F  </i>
    <i type="logical" name="LMONO"> F  </i>
    <i type="int" name="IDIPOL">     0</i>
    <i name="EPSILON">      1.00000000</i>
    <v name="DIPOL">   -100.00000000   -100.00000000   -100.00000000</v>
    <i name="EFIELD">      0.00000000</i>
   </separator>
  </separator>
  <separator name="grids" >
   <i type="int" name="NGX">    16</i>
   <i type="int" name="NGY">    16</i>
   <i type="int" name="NGZ">   240</i>
   <i type="int" name="NGXF">    32</i>
   <i type="int" name="NGYF">    32</i>
   <i type="int" name="NGZF">   480</i>
   <i type="logical" name="ADDGRID"> F  </i>
  </separator>
  <separator name="ionic" >
   <i type="int" name="NSW">     0</i>
   <i type="int" name="IBRION">    -1</i>
   <i type="int" name="ISIF">     2</i>
   <i name="PSTRESS">      0.00000000</i>
   <i name="EDIFFG">      0.00001000</i>
   <i type="int" name="NFREE">     0</i>
   <i name="POTIM">      0.50000000</i>
   <i name="SMASS">     -3.00000000</i>
   <i name="SCALEE">      1.00000000</i>
  </separator>
  <separator name="ionic md" >
   <i name="TEBEG">      0.00010000</i>
   <i name="TEEND">      0.00010000</i>
   <i type="int" name="NBLOCK">     1</i>
   <i type="int" name="KBLOCK">     1</i>
   <i type="int" name="NPACO">   256</i>
   <i name="APACO">     16.00000000</i>
  </separator>
  <separator name="symmetry" >
   <i type="int" name="ISYM">     2</i>
   <i name="SYMPREC">      0.00000010</i>
  </separator>
  <separator name="dos" >
   <i type="logical" name="LORBIT"> F  </i>
   <v name="RWIGS">     -1.00000000</v>
   <i type="int" name="NEDOS">   301</i>
   <i name="EMIN">     10.00000000</i>
   <i name="EMAX">    -10.00000000</i>
   <i name="EFERMI">      0.00000000</i>
  </separator>
  <separator name="writing" >
   <i type="int" name="NWRITE">     2</i>
   <i type="logical" name="LWAVE"> T  </i>
   <i type="logical" name="LCHARG"> T  </i>
   <i type="logical" name="LPARD"> F  </i>
   <i type="logical" name="LVTOT"> F  </i>
   <i type="logical" name="LVHAR"> F  </i>
   <i type="logical" name="LELF"> F  </i>
   <i type="logical" name="LOPTICS"> F  </i>
   <v name="STM">      0.00000000      0.00000000      0.00000000      0.00000000      0.00000000      0.00000000      0.00000000</v>
  </separator>
  <separator name="performance" >
   <i type="int" name="NPAR">     4</i>
   <i type="int" name="NSIM">     4</i>
   <i type="int" name="NBLK">    -1</i>
   <i type="logical" name="LPLANE"> T  </i>
   <i type="logical" name="LSCALAPACK"> F  </i>
   <i type="logical" name="LSCAAWARE"> F  </i>
   <i type="logical" name="LSCALU"> F  </i>
   <i type="logical" name="LASYNC"> F  </i>
   <i type="logical" name="LORBITALREAL"> F  </i>
  </separator>
  <separator name="miscellaneous" >
   <i type="int" name="IDIOT">     3</i>
   <i type="logical" name="LMUSIC"> F  </i>
   <v name="POMASS">     12.01100000</v>
   <v name="DARWINR">      0.00000000</v>
   <v name="DARWINV">      1.00000000</v>
   <i type="logical" name="LCORR"> T  </i>
  </separator>
  <i type="logical" name="GGA_COMPAT"> T  </i>
  <i type="logical" name="LBERRY"> F  </i>
  <i type="int" name="ICORELEVEL">     0</i>
  <i type="logical" name="LDAU"> F  </i>
  <i type="int" name="I_CONSTRAINED_M">     0</i>
  <separator name="electronic exchange-correlation" >
   <i type="string" name="GGA">--</i>
   <i type="int" name="VOSKOWN">     0</i>
   <i type="logical" name="LHFCALC"> F  </i>
   <i type="string" name="PRECFOCK"></i>
   <i type="logical" name="LSYMGRAD"> F  </i>
   <i type="logical" name="LHFONE"> F  </i>
   <i type="logical" name="LRHFCALC"> F  </i>
   <i type="logical" name="LTHOMAS"> F  </i>
   <i type="logical" name="LMODELHF"> F  </i>
   <i name="ENCUT4O">     -1.00000000</i>
   <i type="int" name="EXXOEP">     0</i>
   <i type="int" name="FOURORBIT">     0</i>
   <i name="AEXX">      0.00000000</i>
   <i name="HFALPHA">      0.00000000</i>
   <i name="MCALPHA">      0.00000000</i>
   <i name="ALDAX">      1.00000000</i>
   <i name="AGGAX">      1.00000000</i>
   <i name="ALDAC">      1.00000000</i>
   <i name="AGGAC">      1.00000000</i>
   <i type="int" name="NKREDX">     1</i>
   <i type="int" name="NKREDY">     1</i>
   <i type="int" name="NKREDZ">     1</i>
   <i type="logical" name="SHIFTRED"> F  </i>
   <i type="logical" name="ODDONLY"> F  </i>
   <i type="logical" name="EVENONLY"> F  </i>
   <i type="int" name="LMAXFOCK">     0</i>
   <i type="int" name="NMAXFOCKAE">     0</i>
   <i type="logical" name="LFOCKAEDFT"> F  </i>
   <i name="HFSCREEN">      0.00000000</i>
   <i name="HFSCREENC">      0.00000000</i>
   <i type="int" name="NBANDSGWLOW">     0</i>
  </separator>
  <separator name="vdW DFT" >
   <i type="logical" name="LUSE_VDW"> F  </i>
   <i name="Zab_VDW">     -0.84910000</i>
   <i name="PARAM1">      0.12340000</i>
   <i name="PARAM2">      1.00000000</i>
   <i name="PARAM3">      0.00000000</i>
  </separator>
  <separator name="model GW" >
   <i type="int" name="MODEL_GW">     0</i>
   <i name="MODEL_EPS0">     54.39933176</i>
   <i name="MODEL_ALPHA">      1.00000000</i>
  </separator>
  <separator name="linear response parameters" >
   <i type="logical" name="LEPSILON"> F  </i>
   <i type="logical" name="LRPA"> F  </i>
   <i type="logical" name="LNABLA"> F  </i>
   <i type="logical" name="LVEL"> F  </i>
   <i type="int" name="KINTER">     0</i>
   <i name="CSHIFT">      0.10000000</i>
   <i name="OMEGAMAX">     -1.00000000</i>
   <i name="DEG_THRESHOLD">      0.00200000</i>
  </separator>
  <separator name="orbital magnetization" >
   <i type="logical" name="NUCIND"> F  </i>
   <v name="MAGPOS">      0.00000000      0.00000000      0.00000000</v>
   <i type="logical" name="LNICSALL"> T  </i>
   <i type="logical" name="ORBITALMAG"> F  </i>
   <i type="logical" name="LMAGBLOCH"> F  </i>
   <i type="logical" name="LCHIMAG"> F  </i>
   <i type="logical" name="LGAUGE"> T  </i>
   <i type="int" name="MAGATOM">     0</i>
   <v name="MAGDIPOL">      0.00000000      0.00000000      0.00000000</v>
   <v name="AVECCONST">      0.00000000      0.00000000      0.00000000</v>
  </separator>
  <separator name="response functions" >
   <i type="logical" name="LADDER"> F  </i>
   <i type="logical" name="LHARTREE"> T  </i>
   <i type="int" name="IBSE">     0</i>
   <i type="logical" name="LTCTE"> F  </i>
   <i type="logical" name="LTETE"> F  </i>
   <i type="logical" name="LTRIPLET"> F  </i>
   <i type="logical" name="LFXCEPS"> F  </i>
   <i type="logical" name="L2ORDER"> F  </i>
   <i type="logical" name="LUSEW"> F  </i>
   <i name="ENCUTGW">     -2.00000000</i>
   <i name="ENCUTGWSOFT">     -2.00000000</i>
   <i name="ENCUTLF">     -1.00000000</i>
   <i type="int" name="LMAXMP2">    -1</i>
   <i name="SCISSOR">      0.00000000</i>
   <i type="int" name="NOMEGA">     0</i>
   <i type="int" name="NOMEGAR">     0</i>
   <i type="int" name="NBANDSGW">    -1</i>
   <i type="int" name="NBANDSO">    -1</i>
   <i type="int" name="NBANDSV">    -1</i>
   <i type="int" name="NELM">     1</i>
   <i type="int" name="DIM">     3</i>
   <i type="int" name="ANTIRES">     0</i>
   <i name="OMEGAMAX">    -30.00000000</i>
   <i name="OMEGATL">   -200.00000000</i>
   <i type="int" name="OMEGAGRID">     0</i>
   <i name="CSHIFT">     -0.10000000</i>
   <i type="logical" name="SELFENERGY"> F  </i>
   <i type="logical" name="LSPECTRAL"> F  </i>
   <i type="logical" name="ODDONLYGW"> F  </i>
   <i type="logical" name="EVENONLYGW"> F  </i>
   <i type="int" name="NKREDLFX">     1</i>
   <i type="int" name="NKREDLFY">     1</i>
   <i type="int" name="NKREDLFZ">     1</i>
   <i type="int" name="MAXMEM">  1800</i>
   <i type="int" name="TELESCOPE">     0</i>
  </separator>
 </parameters>
 <atominfo>
  <atoms>       2 </atoms>
  <types>       1 </types>
  <array name="atoms" >
   <dimension dim="1">ion</dimension>
   <field type="string">element</field>
   <field type="int">atomtype</field>
   <set>
    <rc><c>C </c><c>   1</c></rc>
    <rc><c>C </c><c>   1</c></rc>
   </set>
  </array>
  <array name="atomtypes" >
   <dimension dim="1">type</dimension>
   <field type="int">atomspertype</field>
   <field type="string">element</field>
   <field>mass</field>
   <field>valence</field>
   <field type="string">pseudopotential</field>
   <set>
    <rc><c>   2</c><c>C </c><c>     12.01100000</c><c>      4.00000000</c><c> PAW_PBE C 08Apr2002                    </c></rc>
   </set>
  </array>
 </atominfo>
 <structure name="initialpos" >
  <crystal>
   <varray name="basis" >
    <v>       2.46380000       0.00000000       0.00000000 </v>
    <v>      -1.23190000       2.13370008       0.00000000 </v>
    <v>       0.00000000       0.00000000      34.49320000 </v>
   </varray>
   <i name="volume">    181.33110586 </i>
   <varray name="rec_basis" >
    <v>       0.40587710       0.23433472       0.00000000 </v>
    <v>       0.00000000       0.46866943       0.00000000 </v>
    <v>       0.00000000       0.00000000       0.02899122 </v>
   </varray>
  </crystal>
  <varray name="positions" >
   <v>       0.00000000       0.00000000       0.00000000 </v>
   <v>       0.33333330       0.66666670       0.00000000 </v>
  </varray>
  <varray name="selective"  type="logical" >
   <v type="logical" >  T  T  F </v>
   <v type="logical" >  T  T  F </v>
  </varray>
  <nose>
   <v>      -3.00000000       0.00000000       0.00010000       0.00010000 </v>
  </nose>
 </structure>
 <calculation>
  <scstep>
   <time name="dav">    4.81    4.81</time>
   <time name="total">    4.97    4.98</time>
   <energy>
    <i name="alphaZ">      1.79737864 </i>
    <i name="ewald">   2627.90694320 </i>
    <i name="hartreedc">  -2868.44287024 </i>
    <i name="XCdc">     28.78221281 </i>
    <i name="pawpsdc">    139.88729995 </i>
    <i name="pawaedc">   -142.45872842 </i>
    <i name="eentropy">     -0.00150980 </i>
    <i name="bandstr">    -55.25646380 </i>
    <i name="atom">    294.25444774 </i>
    <i name="e_fr_energy">     26.46871009 </i>
    <i name="e_wo_entrp">     26.47021989 </i>
    <i name="e_0_energy">     26.46921336 </i>
   </energy>
  </scstep>
  <scstep>
   <time name="dav">    6.11    6.11</time>
   <time name="total">    6.12    6.12</time>
   <energy>
    <i name="e_fr_energy">    -14.13068059 </i>
    <i name="e_wo_entrp">    -14.13049728 </i>
    <i name="e_0_energy">    -14.13061948 </i>
   </energy>
  </scstep>
  <scstep>
   <time name="dav">    5.27    5.27</time>
   <time name="total">    5.27    5.31</time>
   <energy>
    <i name="e_fr_energy">    -17.27104251 </i>
    <i name="e_wo_entrp">    -17.26958426 </i>
    <i name="e_0_energy">    -17.27055643 </i>
   </energy>
  </scstep>
  <scstep>
   <time name="dav">    5.99    5.99</time>
   <time name="total">    6.00    6.01</time>
   <energy>
    <i name="e_fr_energy">    -17.33004227 </i>
    <i name="e_wo_entrp">    -17.32856604 </i>
    <i name="e_0_energy">    -17.32955019 </i>
   </energy>
  </scstep>
  <scstep>
   <time name="dav">    5.99    5.99</time>
   <time name="total">    5.99    6.01</time>
   <energy>
    <i name="e_fr_energy">    -17.33119807 </i>
    <i name="e_wo_entrp">    -17.32972185 </i>
    <i name="e_0_energy">    -17.33070599 </i>
   </energy>
  </scstep>
  <scstep>
   <time name="dav">    6.30    6.30</time>
   <time name="total">    6.30    6.31</time>
   <energy>
    <i name="e_fr_energy">    -17.33122652 </i>
    <i name="e_wo_entrp">    -17.32975030 </i>
    <i name="e_0_energy">    -17.33073445 </i>
   </energy>
  </scstep>
  <scstep>
   <time name="dav">    5.91    5.91</time>
   <time name="total">    5.91    5.93</time>
   <energy>
    <i name="alphaZ">      1.79737864 </i>
    <i name="ewald">   2627.90694320 </i>
    <i name="hartreedc">  -2868.44287024 </i>
    <i name="XCdc">     28.78221281 </i>
    <i name="pawpsdc">    139.88729995 </i>
    <i name="pawaedc">   -142.45872842 </i>
    <i name="eentropy">     -0.00147622 </i>
    <i name="bandstr">    -99.05643413 </i>
    <i name="atom">    294.25444774 </i>
    <i name="e_fr_energy">    -17.33122666 </i>
    <i name="e_wo_entrp">    -17.32975044 </i>
    <i name="e_0_energy">    -17.33073459 </i>
   </energy>
  </scstep>
  <structure>
   <crystal>
    <varray name="basis" >
     <v>       2.46380000       0.00000000       0.00000000 </v>
     <v>      -1.23190000       2.13370008       0.00000000 </v>
     <v>       0.00000000       0.00000000      34.49320000 </v>
    </varray>
    <i name="volume">    181.33110586 </i>
    <varray name="rec_basis" >
     <v>       0.40587710       0.23433472       0.00000000 </v>
     <v>       0.00000000       0.46866943       0.00000000 </v>
     <v>       0.00000000       0.00000000       0.02899122 </v>
    </varray>
   </crystal>
   <varray name="positions" >
    <v>       0.00000000       0.00000000       0.00000000 </v>
    <v>       0.33333330       0.66666670       0.00000000 </v>
   </varray>
  </structure>
  <varray name="forces" >
   <v>       8.15128444       3.24127658       0.00000000 </v>
   <v>      -8.15128444      -3.24127658       0.00000000 </v>
  </varray>
  <varray name="stress" >
   <v>      34.84690532      74.29654676       0.00000000 </v>
   <v>      74.29654677      -7.19435207       0.00000000 </v>
   <v>       0.00000000       0.00000000       5.39350413 </v>
  </varray>
  <energy>
   <i name="e_fr_energy">    -17.33122666 </i>
   <i name="e_wo_entrp">    -17.33073459 </i>
   <i name="e_0_energy">     -0.00147622 </i>
  </energy>
  <time name="totalsc">   43.86   44.39</time>
  <eigenvalues>
   <array>
    <dimension dim="1">band</dimension>
    <dimension dim="2">kpoint</dimension>
    <dimension dim="3">spin</dimension>
    <field>eigene</field>
    <field>occ</field>
    <set>
     <set comment="spin 1">
      <set comment="kpoint 1">
       <r>  -22.9144    1.0000 </r>
       <r>  -11.0077    1.0000 </r>
       <r>   -6.4010    1.0000 </r>
       <r>   -6.4009    1.0000 </r>
       <r>   -0.1107    0.0000 </r>
       <r>    0.6464    0.0000 </r>
       <r>    0.8658    0.0000 </r>
       <r>    1.0910    0.0000 </r>
      </set>
      <set comment="kpoint 2">
       <r>  -22.9074    1.0000 </r>
       <r>  -10.9993    1.0000 </r>
       <r>   -6.4302    1.0000 </r>
       <r>   -6.4164    1.0000 </r>
       <r>   -0.1011    0.0000 </r>
       <r>    0.6562    0.0000 </r>
       <r>    0.8756    0.0000 </r>
       <r>    1.1008    0.0000 </r>
      </set>
      <set comment="kpoint 3">
       <r>  -22.8863    1.0000 </r>
       <r>  -10.9742    1.0000 </r>
       <r>   -6.5178    1.0000 </r>
       <r>   -6.4627    1.0000 </r>
       <r>   -0.0725    0.0000 </r>
       <r>    0.6852    0.0000 </r>
       <r>    0.9050    0.0000 </r>
       <r>    1.1301    0.0000 </r>
      </set>
      <set comment="kpoint 4">
       <r>  -22.8511    1.0000 </r>
       <r>  -10.9322    1.0000 </r>
       <r>   -6.6606    1.0000 </r>
       <r>   -6.5375    1.0000 </r>
       <r>   -0.0248    0.0000 </r>
       <r>    0.7337    0.0000 </r>
       <r>    0.9541    0.0000 </r>
       <r>    1.1791    0.0000 </r>
      </set>
      <set comment="kpoint 5">
       <r>  -22.8018    1.0000 </r>
       <r>  -10.8735    1.0000 </r>
       <r>   -6.8554    1.0000 </r>
       <r>   -6.6387    1.0000 </r>
       <r>    0.0421    0.0000 </r>
       <r>    0.8016    0.0000 </r>
       <r>    1.0228    0.0000 </r>
       <r>    1.2476    0.0000 </r>
      </set>
      <set comment="kpoint 6">
       <r>  -22.7386    1.0000 </r>
       <r>  -10.7980    1.0000 </r>
       <r>   -7.0974    1.0000 </r>
       <r>   -6.7627    1.0000 </r>
       <r>    0.1281    0.0000 </r>
       <r>    0.8889    0.0000 </r>
       <r>    1.1112    0.0000 </r>
       <r>    1.3356    0.0000 </r>
      </set>
      <set comment="kpoint 7">
       <r>  -22.6613    1.0000 </r>
       <r>  -10.7057    1.0000 </r>
       <r>   -7.3812    1.0000 </r>
       <r>   -6.9058    1.0000 </r>
       <r>    0.2331    0.0000 </r>
       <r>    0.9955    0.0000 </r>
       <r>    1.2192    0.0000 </r>
       <r>    1.4433    0.0000 </r>
      </set>
      <set comment="kpoint 8">
       <r>  -22.5700    1.0000 </r>
       <r>  -10.5972    1.0000 </r>
       <r>   -7.7019    1.0000 </r>
       <r>   -7.0646    1.0000 </r>
       <r>    0.3573    0.0000 </r>
       <r>    1.1215    0.0000 </r>
       <r>    1.3468    0.0000 </r>
       <r>    1.5705    0.0000 </r>
      </set>
      <set comment="kpoint 9">
       <r>  -22.4649    1.0000 </r>
       <r>  -10.4722    1.0000 </r>
       <r>   -8.0543    1.0000 </r>
       <r>   -7.2348    1.0000 </r>
       <r>    0.5006    0.0000 </r>
       <r>    1.2667    0.0000 </r>
       <r>    1.4940    0.0000 </r>
       <r>    1.7172    0.0000 </r>
      </set>
      <set comment="kpoint 10">
       <r>  -22.3459    1.0000 </r>
       <r>  -10.3311    1.0000 </r>
       <r>   -8.4334    1.0000 </r>
       <r>   -7.4135    1.0000 </r>
       <r>    0.6629    0.0000 </r>
       <r>    1.4312    0.0000 </r>
       <r>    1.6609    0.0000 </r>
       <r>    1.8835    0.0000 </r>
      </set>
      <set comment="kpoint 11">
       <r>  -22.2130    1.0000 </r>
       <r>  -10.1740    1.0000 </r>
       <r>   -8.8335    1.0000 </r>
       <r>   -7.5974    1.0000 </r>
       <r>    0.8442    0.0000 </r>
       <r>    1.6149    0.0000 </r>
       <r>    1.8475    0.0000 </r>
       <r>    2.0693    0.0000 </r>
      </set>
      <set comment="kpoint 12">
       <r>  -22.0664    1.0000 </r>
       <r>  -10.0012    1.0000 </r>
       <r>   -9.2516    1.0000 </r>
       <r>   -7.7837    1.0000 </r>
       <r>    1.0446    0.0000 </r>
       <r>    1.8176    0.0000 </r>
       <r>    2.0536    0.0000 </r>
       <r>    2.2745    0.0000 </r>
      </set>
      <set comment="kpoint 13">
       <r>  -21.9062    1.0000 </r>
       <r>   -9.8127    1.0000 </r>
       <r>   -9.6836    1.0000 </r>
       <r>   -7.9697    1.0000 </r>
       <r>    1.2639    0.0000 </r>
       <r>    2.0391    0.0000 </r>
       <r>    2.2794    0.0000 </r>
       <r>    2.4992    0.0000 </r>
      </set>
      <set comment="kpoint 14">
       <r>  -21.7324    1.0000 </r>
       <r>  -10.1259    1.0000 </r>
       <r>   -9.6092    1.0000 </r>
       <r>   -8.1527    1.0000 </r>
       <r>    1.5022    0.0000 </r>
       <r>    2.2789    0.0000 </r>
       <r>    2.5248    0.0000 </r>
       <r>    2.7431    0.0000 </r>
      </set>
      <set comment="kpoint 15">
       <r>  -21.5451    1.0000 </r>
       <r>  -10.5758    1.0000 </r>
       <r>   -9.3910    1.0000 </r>
       <r>   -8.3316    1.0000 </r>
       <r>    1.7593    0.0000 </r>
       <r>    2.5356    0.0000 </r>
       <r>    2.7899    0.0000 </r>
       <r>    3.0056    0.0000 </r>
      </set>
      <set comment="kpoint 16">
       <r>  -21.3446    1.0000 </r>
       <r>  -11.0308    1.0000 </r>
       <r>   -9.1587    1.0000 </r>
       <r>   -8.5045    1.0000 </r>
       <r>    2.0351    0.0000 </r>
       <r>    2.8028    0.0000 </r>
       <r>    3.0745    0.0000 </r>
       <r>    3.2815    0.0000 </r>
      </set>
      <set comment="kpoint 17">
       <r>  -21.1308    1.0000 </r>
       <r>  -11.4885    1.0000 </r>
       <r>   -8.9127    1.0000 </r>
       <r>   -8.6700    1.0000 </r>
       <r>    2.3296    0.0000 </r>
       <r>    2.9916    0.0000 </r>
       <r>    3.2968    0.0000 </r>
       <r>    3.3788    0.0000 </r>
      </set>
      <set comment="kpoint 18">
       <r>  -20.9040    1.0000 </r>
       <r>  -11.9473    1.0000 </r>
       <r>   -8.8268    1.0000 </r>
       <r>   -8.6541    1.0000 </r>
       <r>    2.6424    0.0000 </r>
       <r>    2.6559    0.0000 </r>
       <r>    3.4795    0.0000 </r>
       <r>    3.7027    0.0000 </r>
      </set>
      <set comment="kpoint 19">
       <r>  -20.6643    1.0000 </r>
       <r>  -12.4050    1.0000 </r>
       <r>   -8.9740    1.0000 </r>
       <r>   -8.3835    1.0000 </r>
       <r>    2.1894    0.0000 </r>
       <r>    2.9731    0.0000 </r>
       <r>    3.8024    0.0000 </r>
       <r>    4.0459    0.0000 </r>
      </set>
      <set comment="kpoint 20">
       <r>  -20.4121    1.0000 </r>
       <r>  -12.8599    1.0000 </r>
       <r>   -9.1106    1.0000 </r>
       <r>   -8.1025    1.0000 </r>
       <r>    1.7136    0.0000 </r>
       <r>    3.3207    0.0000 </r>
       <r>    4.1540    0.0000 </r>
       <r>    4.3919    0.0000 </r>
      </set>
      <set comment="kpoint 21">
       <r>  -20.1477    1.0000 </r>
       <r>  -13.3110    1.0000 </r>
       <r>   -9.2362    1.0000 </r>
       <r>   -7.8130    1.0000 </r>
       <r>    1.2393    0.0000 </r>
       <r>    3.6814    0.0000 </r>
       <r>    4.3353    0.0000 </r>
       <r>    4.5267    0.0000 </r>
      </set>
      <set comment="kpoint 22">
       <r>  -19.8714    1.0000 </r>
       <r>  -13.7567    1.0000 </r>
       <r>   -9.3501    1.0000 </r>
       <r>   -7.5171    1.0000 </r>
       <r>    0.7725    0.0000 </r>
       <r>    4.0291    0.0000 </r>
       <r>    4.3209    0.0000 </r>
       <r>    4.9191    0.0000 </r>
      </set>
      <set comment="kpoint 23">
       <r>  -19.5838    1.0000 </r>
       <r>  -14.1956    1.0000 </r>
       <r>   -9.4518    1.0000 </r>
       <r>   -7.2181    1.0000 </r>
       <r>    0.3188    0.0000 </r>
       <r>    4.1634    0.0000 </r>
       <r>    4.5425    0.0000 </r>
       <r>    5.3303    0.0000 </r>
      </set>
      <set comment="kpoint 24">
       <r>  -19.2858    1.0000 </r>
       <r>  -14.6259    1.0000 </r>
       <r>   -9.5406    1.0000 </r>
       <r>   -6.9201    1.0000 </r>
       <r>   -0.1151    0.0000 </r>
       <r>    4.1431    0.0000 </r>
       <r>    4.9423    0.0000 </r>
       <r>    5.7598    0.0000 </r>
      </set>
      <set comment="kpoint 25">
       <r>  -18.9786    1.0000 </r>
       <r>  -15.0461    1.0000 </r>
       <r>   -9.6165    1.0000 </r>
       <r>   -6.6296    1.0000 </r>
       <r>   -0.5228    0.0000 </r>
       <r>    4.1112    0.0000 </r>
       <r>    5.3775    0.0000 </r>
       <r>    6.2073    0.0000 </r>
      </set>
      <set comment="kpoint 26">
       <r>  -18.6647    1.0000 </r>
       <r>  -15.4530    1.0000 </r>
       <r>   -9.6786    1.0000 </r>
       <r>   -6.3558    1.0000 </r>
       <r>   -0.8936    0.0000 </r>
       <r>    4.0821    0.0000 </r>
       <r>    5.8337    0.0000 </r>
       <r>    6.6722    0.0000 </r>
      </set>
      <set comment="kpoint 27">
       <r>  -18.3489    1.0000 </r>
       <r>  -15.8416    1.0000 </r>
       <r>   -9.7274    1.0000 </r>
       <r>   -6.1116    1.0000 </r>
       <r>   -1.2143    0.0000 </r>
       <r>    4.0582    0.0000 </r>
       <r>    6.3081    0.0000 </r>
       <r>    7.1534    0.0000 </r>
      </set>
      <set comment="kpoint 28">
       <r>  -18.0428    1.0000 </r>
       <r>  -16.1998    1.0000 </r>
       <r>   -9.7624    1.0000 </r>
       <r>   -5.9140    1.0000 </r>
       <r>   -1.4673    0.0000 </r>
       <r>    4.0411    0.0000 </r>
       <r>    6.7992    0.0000 </r>
       <r>    7.6499    0.0000 </r>
      </set>
      <set comment="kpoint 29">
       <r>  -17.7808    1.0000 </r>
       <r>  -16.4931    1.0000 </r>
       <r>   -9.7833    1.0000 </r>
       <r>   -5.7829    1.0000 </r>
       <r>   -1.6311    0.0000 </r>
       <r>    4.0310    0.0000 </r>
       <r>    7.3045    0.0000 </r>
       <r>    8.1579    0.0000 </r>
      </set>
      <set comment="kpoint 30">
       <r>  -17.6613    1.0000 </r>
       <r>  -16.6231    1.0000 </r>
       <r>   -9.7903    1.0000 </r>
       <r>   -5.7369    1.0000 </r>
       <r>   -1.6881    0.0000 </r>
       <r>    4.0275    0.0000 </r>
       <r>    7.7561    0.0000 </r>
       <r>    7.9095    0.0000 </r>
      </set>
      <set comment="kpoint 31">
       <r>  -17.6613    1.0000 </r>
       <r>  -16.6231    1.0000 </r>
       <r>   -9.7903    1.0000 </r>
       <r>   -5.7369    1.0000 </r>
       <r>   -1.6881    0.0000 </r>
       <r>    4.0275    0.0000 </r>
       <r>    7.7561    0.0000 </r>
       <r>    7.9095    0.0000 </r>
      </set>
      <set comment="kpoint 32">
       <r>  -17.6593    1.0000 </r>
       <r>  -16.6211    1.0000 </r>
       <r>   -9.8010    1.0000 </r>
       <r>   -5.7338    1.0000 </r>
       <r>   -1.6887    0.0000 </r>
       <r>    4.0419    0.0000 </r>
       <r>    7.7588    0.0000 </r>
       <r>    7.9124    0.0000 </r>
      </set>
      <set comment="kpoint 33">
       <r>  -17.6532    1.0000 </r>
       <r>  -16.6151    1.0000 </r>
       <r>   -9.8327    1.0000 </r>
       <r>   -5.7251    1.0000 </r>
       <r>   -1.6906    0.0000 </r>
       <r>    4.0849    0.0000 </r>
       <r>    7.7671    0.0000 </r>
       <r>    7.9213    0.0000 </r>
      </set>
      <set comment="kpoint 34">
       <r>  -17.6432    1.0000 </r>
       <r>  -16.6051    1.0000 </r>
       <r>   -9.8855    1.0000 </r>
       <r>   -5.7107    1.0000 </r>
       <r>   -1.6939    0.0000 </r>
       <r>    4.1561    0.0000 </r>
       <r>    7.7809    0.0000 </r>
       <r>    7.9360    0.0000 </r>
      </set>
      <set comment="kpoint 35">
       <r>  -17.6291    1.0000 </r>
       <r>  -16.5912    1.0000 </r>
       <r>   -9.9579    1.0000 </r>
       <r>   -5.6909    1.0000 </r>
       <r>   -1.6988    0.0000 </r>
       <r>    4.2544    0.0000 </r>
       <r>    7.8002    0.0000 </r>
       <r>    7.9565    0.0000 </r>
      </set>
      <set comment="kpoint 36">
       <r>  -17.6111    1.0000 </r>
       <r>  -16.5734    1.0000 </r>
       <r>  -10.0495    1.0000 </r>
       <r>   -5.6653    1.0000 </r>
       <r>   -1.7055    0.0000 </r>
       <r>    4.3793    0.0000 </r>
       <r>    7.8249    0.0000 </r>
       <r>    7.9828    0.0000 </r>
      </set>
      <set comment="kpoint 37">
       <r>  -17.5889    1.0000 </r>
       <r>  -16.5517    1.0000 </r>
       <r>  -10.1589    1.0000 </r>
       <r>   -5.6339    1.0000 </r>
       <r>   -1.7140    0.0000 </r>
       <r>    4.5292    0.0000 </r>
       <r>    7.8551    0.0000 </r>
       <r>    8.0150    0.0000 </r>
      </set>
      <set comment="kpoint 38">
       <r>  -17.5628    1.0000 </r>
       <r>  -16.5262    1.0000 </r>
       <r>  -10.2850    1.0000 </r>
       <r>   -5.5969    1.0000 </r>
       <r>   -1.7252    0.0000 </r>
       <r>    4.7026    0.0000 </r>
       <r>    7.8906    0.0000 </r>
       <r>    8.0529    0.0000 </r>
      </set>
      <set comment="kpoint 39">
       <r>  -17.5327    1.0000 </r>
       <r>  -16.4969    1.0000 </r>
       <r>  -10.4258    1.0000 </r>
       <r>   -5.5540    1.0000 </r>
       <r>   -1.7383    0.0000 </r>
       <r>    4.8984    0.0000 </r>
       <r>    7.9314    0.0000 </r>
       <r>    8.0967    0.0000 </r>
      </set>
      <set comment="kpoint 40">
       <r>  -17.4985    1.0000 </r>
       <r>  -16.4639    1.0000 </r>
       <r>  -10.5805    1.0000 </r>
       <r>   -5.5054    1.0000 </r>
       <r>   -1.7543    0.0000 </r>
       <r>    5.1146    0.0000 </r>
       <r>    7.9776    0.0000 </r>
       <r>    8.1462    0.0000 </r>
      </set>
      <set comment="kpoint 41">
       <r>  -17.4603    1.0000 </r>
       <r>  -16.4274    1.0000 </r>
       <r>  -10.7476    1.0000 </r>
       <r>   -5.4515    1.0000 </r>
       <r>   -1.7740    0.0000 </r>
       <r>    5.3492    0.0000 </r>
       <r>    8.0288    0.0000 </r>
       <r>    8.2014    0.0000 </r>
      </set>
      <set comment="kpoint 42">
       <r>  -17.4181    1.0000 </r>
       <r>  -16.3875    1.0000 </r>
       <r>  -10.9253    1.0000 </r>
       <r>   -5.3918    1.0000 </r>
       <r>   -1.7969    0.0000 </r>
       <r>    5.6009    0.0000 </r>
       <r>    8.0851    0.0000 </r>
       <r>    8.2629    0.0000 </r>
      </set>
      <set comment="kpoint 43">
       <r>  -17.3719    1.0000 </r>
       <r>  -16.3442    1.0000 </r>
       <r>  -11.1122    1.0000 </r>
       <r>   -5.3262    1.0000 </r>
       <r>   -1.8239    0.0000 </r>
       <r>    5.8677    0.0000 </r>
       <r>    8.1463    0.0000 </r>
       <r>    8.3355    0.0000 </r>
      </set>
      <set comment="kpoint 44">
       <r>  -17.3217    1.0000 </r>
       <r>  -16.2979    1.0000 </r>
       <r>  -11.3068    1.0000 </r>
       <r>   -5.2550    1.0000 </r>
       <r>   -1.8559    0.0000 </r>
       <r>    6.1481    0.0000 </r>
       <r>    8.2124    0.0000 </r>
       <r>    8.3826    0.0000 </r>
      </set>
      <set comment="kpoint 45">
       <r>  -17.2675    1.0000 </r>
       <r>  -16.2488    1.0000 </r>
       <r>  -11.5081    1.0000 </r>
       <r>   -5.1783    1.0000 </r>
       <r>   -1.8935    0.0000 </r>
       <r>    6.4394    0.0000 </r>
       <r>    8.2827    0.0000 </r>
       <r>    8.2983    0.0000 </r>
      </set>
      <set comment="kpoint 46">
       <r>  -17.2093    1.0000 </r>
       <r>  -16.1972    1.0000 </r>
       <r>  -11.7143    1.0000 </r>
       <r>   -5.0960    1.0000 </r>
       <r>   -1.9368    0.0000 </r>
       <r>    6.7398    0.0000 </r>
       <r>    8.2092    0.0000 </r>
       <r>    8.3607    0.0000 </r>
      </set>
      <set comment="kpoint 47">
       <r>  -17.1471    1.0000 </r>
       <r>  -16.1435    1.0000 </r>
       <r>  -11.9242    1.0000 </r>
       <r>   -5.0078    1.0000 </r>
       <r>   -1.9863    0.0000 </r>
       <r>    7.0475    0.0000 </r>
       <r>    8.1129    0.0000 </r>
       <r>    8.4659    0.0000 </r>
      </set>
      <set comment="kpoint 48">
       <r>  -17.0809    1.0000 </r>
       <r>  -16.0883    1.0000 </r>
       <r>  -12.1362    1.0000 </r>
       <r>   -4.9144    1.0000 </r>
       <r>   -2.0431    0.0000 </r>
       <r>    7.3590    0.0000 </r>
       <r>    8.0116    0.0000 </r>
       <r>    8.5195    0.0000 </r>
      </set>
      <set comment="kpoint 49">
       <r>  -17.0107    1.0000 </r>
       <r>  -16.0323    1.0000 </r>
       <r>  -12.3488    1.0000 </r>
       <r>   -4.8155    1.0000 </r>
       <r>   -2.1068    0.0000 </r>
       <r>    7.6732    0.0000 </r>
       <r>    7.9093    0.0000 </r>
       <r>    8.6112    0.0000 </r>
      </set>
      <set comment="kpoint 50">
       <r>  -16.9366    1.0000 </r>
       <r>  -15.9762    1.0000 </r>
       <r>  -12.5604    1.0000 </r>
       <r>   -4.7110    1.0000 </r>
       <r>   -2.1784    0.0000 </r>
       <r>    7.8080    0.0000 </r>
       <r>    7.9849    0.0000 </r>
       <r>    8.6942    0.0000 </r>
      </set>
      <set comment="kpoint 51">
       <r>  -16.8584    1.0000 </r>
       <r>  -15.9215    1.0000 </r>
       <r>  -12.7690    1.0000 </r>
       <r>   -4.6008    1.0000 </r>
       <r>   -2.2583    0.0000 </r>
       <r>    7.7103    0.0000 </r>
       <r>    8.2890    0.0000 </r>
       <r>    8.7837    0.0000 </r>
      </set>
      <set comment="kpoint 52">
       <r>  -16.7764    1.0000 </r>
       <r>  -15.8697    1.0000 </r>
       <r>  -12.9724    1.0000 </r>
       <r>   -4.4849    1.0000 </r>
       <r>   -2.3463    0.0000 </r>
       <r>    7.6184    0.0000 </r>
       <r>    8.5777    0.0000 </r>
       <r>    8.8764    0.0000 </r>
      </set>
      <set comment="kpoint 53">
       <r>  -16.6903    1.0000 </r>
       <r>  -15.8231    1.0000 </r>
       <r>  -13.1678    1.0000 </r>
       <r>   -4.3642    1.0000 </r>
       <r>   -2.4440    0.0000 </r>
       <r>    7.5343    0.0000 </r>
       <r>    8.8501    0.0000 </r>
       <r>    8.9714    0.0000 </r>
      </set>
      <set comment="kpoint 54">
       <r>  -16.6003    1.0000 </r>
       <r>  -15.7848    1.0000 </r>
       <r>  -13.3516    1.0000 </r>
       <r>   -4.2379    1.0000 </r>
       <r>   -2.5501    0.0000 </r>
       <r>    7.4597    0.0000 </r>
       <r>    9.0609    0.0000 </r>
       <r>    9.0652    0.0000 </r>
      </set>
      <set comment="kpoint 55">
       <r>  -16.5064    1.0000 </r>
       <r>  -15.7587    1.0000 </r>
       <r>  -13.5195    1.0000 </r>
       <r>   -4.1064    1.0000 </r>
       <r>   -2.6654    0.0000 </r>
       <r>    7.3957    0.0000 </r>
       <r>    9.1546    0.0000 </r>
       <r>    9.2525    0.0000 </r>
      </set>
      <set comment="kpoint 56">
       <r>  -16.4085    1.0000 </r>
       <r>  -15.7498    1.0000 </r>
       <r>  -13.6660    1.0000 </r>
       <r>   -3.9695    1.0001 </r>
       <r>   -2.7895   -0.0002 </r>
       <r>    7.3432    0.0000 </r>
       <r>    9.2446    0.0000 </r>
       <r>    9.3688    0.0000 </r>
      </set>
      <set comment="kpoint 57">
       <r>  -16.3066    1.0000 </r>
       <r>  -15.7636    1.0000 </r>
       <r>  -13.7855    1.0000 </r>
       <r>   -3.8273    1.0028 </r>
       <r>   -2.9222   -0.0034 </r>
       <r>    7.3025    0.0000 </r>
       <r>    9.3305    0.0000 </r>
       <r>    9.4667    0.0000 </r>
      </set>
      <set comment="kpoint 58">
       <r>  -16.2009    1.0000 </r>
       <r>  -15.8048    1.0000 </r>
       <r>  -13.8728    1.0000 </r>
       <r>   -3.6805    1.0252 </r>
       <r>   -3.0636   -0.0262 </r>
       <r>    7.2739    0.0000 </r>
       <r>    9.4111    0.0000 </r>
       <r>    9.5389    0.0000 </r>
      </set>
      <set comment="kpoint 59">
       <r>  -16.0913    1.0000 </r>
       <r>  -15.8764    1.0000 </r>
       <r>  -13.9246    1.0000 </r>
       <r>   -3.5278    0.9874 </r>
       <r>   -3.2125    0.0135 </r>
       <r>    7.2571    0.0000 </r>
       <r>    9.4835    0.0000 </r>
       <r>    9.5717    0.0000 </r>
      </set>
      <set comment="kpoint 60">
       <r>  -15.9779    1.0000 </r>
       <r>  -15.9778    1.0000 </r>
       <r>  -13.9414    1.0000 </r>
       <r>   -3.3700    0.5005 </r>
       <r>   -3.3699    0.5002 </r>
       <r>    7.2517    0.0000 </r>
       <r>    9.5474    0.0000 </r>
       <r>    9.5539    0.0000 </r>
      </set>
      <set comment="kpoint 61">
       <r>  -15.9779    1.0000 </r>
       <r>  -15.9778    1.0000 </r>
       <r>  -13.9414    1.0000 </r>
       <r>   -3.3700    0.5005 </r>
       <r>   -3.3699    0.5002 </r>
       <r>    7.2517    0.0000 </r>
       <r>    9.5474    0.0000 </r>
       <r>    9.5478    0.0000 </r>
      </set>
      <set comment="kpoint 62">
       <r>  -16.2551    1.0000 </r>
       <r>  -15.7393    1.0000 </r>
       <r>  -13.8836    1.0000 </r>
       <r>   -3.7036    1.0199 </r>
       <r>   -3.0388   -0.0205 </r>
       <r>    7.2710    0.0000 </r>
       <r>    9.2850    0.0000 </r>
       <r>    9.6501    0.0000 </r>
      </set>
      <set comment="kpoint 63">
       <r>  -16.5983    1.0000 </r>
       <r>  -15.4854    1.0000 </r>
       <r>  -13.7369    1.0000 </r>
       <r>   -4.0606    1.0000 </r>
       <r>   -2.6880    0.0000 </r>
       <r>    7.3191    0.0000 </r>
       <r>    8.8186    0.0000 </r>
       <r>    9.7000    0.0000 </r>
      </set>
      <set comment="kpoint 64">
       <r>  -16.9750    1.0000 </r>
       <r>  -15.2163    1.0000 </r>
       <r>  -13.5325    1.0000 </r>
       <r>   -4.4356    1.0000 </r>
       <r>   -2.3181    0.0000 </r>
       <r>    7.3723    0.0000 </r>
       <r>    8.2688    0.0000 </r>
       <r>    9.6734    0.0000 </r>
      </set>
      <set comment="kpoint 65">
       <r>  -17.3655    1.0000 </r>
       <r>  -14.9323    1.0000 </r>
       <r>  -13.2893    1.0000 </r>
       <r>   -4.8236    1.0000 </r>
       <r>   -1.9298    0.0000 </r>
       <r>    7.3865    0.0000 </r>
       <r>    7.6934    0.0000 </r>
       <r>    9.0459    0.0000 </r>
      </set>
      <set comment="kpoint 66">
       <r>  -17.7586    1.0000 </r>
       <r>  -14.6336    1.0000 </r>
       <r>  -13.0180    1.0000 </r>
       <r>   -5.2191    1.0000 </r>
       <r>   -1.5221    0.0000 </r>
       <r>    7.1167    0.0000 </r>
       <r>    7.2912    0.0000 </r>
       <r>    8.4163    0.0000 </r>
      </set>
      <set comment="kpoint 67">
       <r>  -18.1479    1.0000 </r>
       <r>  -14.3202    1.0000 </r>
       <r>  -12.7253    1.0000 </r>
       <r>   -5.6184    1.0000 </r>
       <r>   -1.0981    0.0000 </r>
       <r>    6.5499    0.0000 </r>
       <r>    7.0312    0.0000 </r>
       <r>    7.7893    0.0000 </r>
      </set>
      <set comment="kpoint 68">
       <r>  -18.5293    1.0000 </r>
       <r>  -13.9928    1.0000 </r>
       <r>  -12.4153    1.0000 </r>
       <r>   -6.0168    1.0000 </r>
       <r>   -0.6576    0.0000 </r>
       <r>    5.9990    0.0000 </r>
       <r>    6.6383    0.0000 </r>
       <r>    7.2006    0.0000 </r>
      </set>
      <set comment="kpoint 69">
       <r>  -18.9002    1.0000 </r>
       <r>  -13.6516    1.0000 </r>
       <r>  -12.0911    1.0000 </r>
       <r>   -6.4117    1.0000 </r>
       <r>   -0.2018    0.0000 </r>
       <r>    5.4671    0.0000 </r>
       <r>    6.1827    0.0000 </r>
       <r>    6.6379    0.0000 </r>
      </set>
      <set comment="kpoint 70">
       <r>  -19.2587    1.0000 </r>
       <r>  -13.2971    1.0000 </r>
       <r>  -11.7550    1.0000 </r>
       <r>   -6.7992    1.0000 </r>
       <r>    0.2683    0.0000 </r>
       <r>    4.9563    0.0000 </r>
       <r>    5.7098    0.0000 </r>
       <r>    6.1013    0.0000 </r>
      </set>
      <set comment="kpoint 71">
       <r>  -19.6035    1.0000 </r>
       <r>  -12.9298    1.0000 </r>
       <r>  -11.4092    1.0000 </r>
       <r>   -7.1775    1.0000 </r>
       <r>    0.7510    0.0000 </r>
       <r>    4.4679    0.0000 </r>
       <r>    5.2405    0.0000 </r>
       <r>    5.5909    0.0000 </r>
      </set>
      <set comment="kpoint 72">
       <r>  -19.9337    1.0000 </r>
       <r>  -12.5505    1.0000 </r>
       <r>  -11.0558    1.0000 </r>
       <r>   -7.5445    1.0000 </r>
       <r>    1.2439    0.0000 </r>
       <r>    4.0027    0.0000 </r>
       <r>    4.7847    0.0000 </r>
       <r>    5.1067    0.0000 </r>
      </set>
      <set comment="kpoint 73">
       <r>  -20.2485    1.0000 </r>
       <r>  -12.1599    1.0000 </r>
       <r>  -10.6969    1.0000 </r>
       <r>   -7.8983    1.0000 </r>
       <r>    1.7468    0.0000 </r>
       <r>    3.5613    0.0000 </r>
       <r>    4.3475    0.0000 </r>
       <r>    4.6486    0.0000 </r>
      </set>
      <set comment="kpoint 74">
       <r>  -20.5472    1.0000 </r>
       <r>  -11.7588    1.0000 </r>
       <r>  -10.3346    1.0000 </r>
       <r>   -8.2372    1.0000 </r>
       <r>    2.2584    0.0000 </r>
       <r>    3.1441    0.0000 </r>
       <r>    3.9315    0.0000 </r>
       <r>    4.2166    0.0000 </r>
      </set>
      <set comment="kpoint 75">
       <r>  -20.8293    1.0000 </r>
       <r>  -11.3488    1.0000 </r>
       <r>   -9.9712    1.0000 </r>
       <r>   -8.5599    1.0000 </r>
       <r>    2.7515    0.0000 </r>
       <r>    2.7725    0.0000 </r>
       <r>    3.5382    0.0000 </r>
       <r>    3.8109    0.0000 </r>
      </set>
      <set comment="kpoint 76">
       <r>  -21.0946    1.0000 </r>
       <r>  -10.9308    1.0000 </r>
       <r>   -9.6089    1.0000 </r>
       <r>   -8.8654    1.0000 </r>
       <r>    2.3836    0.0000 </r>
       <r>    3.1686    0.0000 </r>
       <r>    3.3303    0.0000 </r>
       <r>    3.4314    0.0000 </r>
      </set>
      <set comment="kpoint 77">
       <r>  -21.3426    1.0000 </r>
       <r>  -10.5069    1.0000 </r>
       <r>   -9.2506    1.0000 </r>
       <r>   -9.1529    1.0000 </r>
       <r>    2.0407    0.0000 </r>
       <r>    2.8233    0.0000 </r>
       <r>    3.0779    0.0000 </r>
       <r>    3.2943    0.0000 </r>
      </set>
      <set comment="kpoint 78">
       <r>  -21.5731    1.0000 </r>
       <r>  -10.0791    1.0000 </r>
       <r>   -9.4214    1.0000 </r>
       <r>   -8.8991    1.0000 </r>
       <r>    1.7229    0.0000 </r>
       <r>    2.5028    0.0000 </r>
       <r>    2.7507    0.0000 </r>
       <r>    2.9687    0.0000 </r>
      </set>
      <set comment="kpoint 79">
       <r>  -21.7858    1.0000 </r>
       <r>   -9.6704    1.0000 </r>
       <r>   -9.6500    1.0000 </r>
       <r>   -8.5574    1.0000 </r>
       <r>    1.4303    0.0000 </r>
       <r>    2.2074    0.0000 </r>
       <r>    2.4496    0.0000 </r>
       <r>    2.6690    0.0000 </r>
      </set>
      <set comment="kpoint 80">
       <r>  -21.9805    1.0000 </r>
       <r>   -9.8993    1.0000 </r>
       <r>   -9.2224    1.0000 </r>
       <r>   -8.2289    1.0000 </r>
       <r>    1.1630    0.0000 </r>
       <r>    1.9372    0.0000 </r>
       <r>    2.1747    0.0000 </r>
       <r>    2.3953    0.0000 </r>
      </set>
      <set comment="kpoint 81">
       <r>  -22.1572    1.0000 </r>
       <r>  -10.1078    1.0000 </r>
       <r>   -8.8009    1.0000 </r>
       <r>   -7.9165    1.0000 </r>
       <r>    0.9210    0.0000 </r>
       <r>    1.6924    0.0000 </r>
       <r>    1.9260    0.0000 </r>
       <r>    2.1476    0.0000 </r>
      </set>
      <set comment="kpoint 82">
       <r>  -22.3155    1.0000 </r>
       <r>  -10.2951    1.0000 </r>
       <r>   -8.3898    1.0000 </r>
       <r>   -7.6244    1.0000 </r>
       <r>    0.7045    0.0000 </r>
       <r>    1.4732    0.0000 </r>
       <r>    1.7035    0.0000 </r>
       <r>    1.9259    0.0000 </r>
      </set>
      <set comment="kpoint 83">
       <r>  -22.4555    1.0000 </r>
       <r>  -10.4613    1.0000 </r>
       <r>   -7.9948    1.0000 </r>
       <r>   -7.3561    1.0000 </r>
       <r>    0.5134    0.0000 </r>
       <r>    1.2796    0.0000 </r>
       <r>    1.5071    0.0000 </r>
       <r>    1.7303    0.0000 </r>
      </set>
      <set comment="kpoint 84">
       <r>  -22.5771    1.0000 </r>
       <r>  -10.6056    1.0000 </r>
       <r>   -7.6234    1.0000 </r>
       <r>   -7.1146    1.0000 </r>
       <r>    0.3478    0.0000 </r>
       <r>    1.1118    0.0000 </r>
       <r>    1.3370    0.0000 </r>
       <r>    1.5607    0.0000 </r>
      </set>
      <set comment="kpoint 85">
       <r>  -22.6800    1.0000 </r>
       <r>  -10.7282    1.0000 </r>
       <r>   -7.2846    1.0000 </r>
       <r>   -6.9041    1.0000 </r>
       <r>    0.2077    0.0000 </r>
       <r>    0.9697    0.0000 </r>
       <r>    1.1930    0.0000 </r>
       <r>    1.4172    0.0000 </r>
      </set>
      <set comment="kpoint 86">
       <r>  -22.7643    1.0000 </r>
       <r>  -10.8288    1.0000 </r>
       <r>   -6.9866    1.0000 </r>
       <r>   -6.7273    1.0000 </r>
       <r>    0.0930    0.0000 </r>
       <r>    0.8533    0.0000 </r>
       <r>    1.0752    0.0000 </r>
       <r>    1.2998    0.0000 </r>
      </set>
      <set comment="kpoint 87">
       <r>  -22.8300    1.0000 </r>
       <r>  -10.9071    1.0000 </r>
       <r>   -6.7404    1.0000 </r>
       <r>   -6.5861    1.0000 </r>
       <r>    0.0039    0.0000 </r>
       <r>    0.7628    0.0000 </r>
       <r>    0.9836    0.0000 </r>
       <r>    1.2084    0.0000 </r>
      </set>
      <set comment="kpoint 88">
       <r>  -22.8769    1.0000 </r>
       <r>  -10.9630    1.0000 </r>
       <r>   -6.5553    1.0000 </r>
       <r>   -6.4840    1.0000 </r>
       <r>   -0.0598    0.0000 </r>
       <r>    0.6982    0.0000 </r>
       <r>    0.9181    0.0000 </r>
       <r>    1.1432    0.0000 </r>
      </set>
      <set comment="kpoint 89">
       <r>  -22.9050    1.0000 </r>
       <r>  -10.9965    1.0000 </r>
       <r>   -6.4399    1.0000 </r>
       <r>   -6.4217    1.0000 </r>
       <r>   -0.0980    0.0000 </r>
       <r>    0.6594    0.0000 </r>
       <r>    0.8788    0.0000 </r>
       <r>    1.1041    0.0000 </r>
      </set>
      <set comment="kpoint 90">
       <r>  -22.9144    1.0000 </r>
       <r>  -11.0077    1.0000 </r>
       <r>   -6.4010    1.0000 </r>
       <r>   -6.4009    1.0000 </r>
       <r>   -0.1107    0.0000 </r>
       <r>    0.6464    0.0000 </r>
       <r>    0.8658    0.0000 </r>
       <r>    1.0910    0.0000 </r>
      </set>
     </set>
    </set>
   </array>
  </eigenvalues>
  <separator name="orbital magnetization" >
   <v name="MAGDIPOLOUT">      0.00000000      0.00000000      0.00000000</v>
  </separator>
  <dos>
   <i name="efermi">     -3.36984919 </i>
   <total>
    <array>
     <dimension dim="1">gridpoints</dimension>
     <dimension dim="2">spin</dimension>
     <field>energy</field>
     <field>total</field>
     <field>integrated</field>
     <set>
      <set comment="spin 1">
       <r>   -24.9144     0.0000     0.0000 </r>
       <r>   -24.7924     0.0000     0.0000 </r>
       <r>   -24.6703     0.0000     0.0000 </r>
       <r>   -24.5483     0.0000     0.0000 </r>
       <r>   -24.4262     0.0000     0.0000 </r>
       <r>   -24.3042     0.0000     0.0000 </r>
       <r>   -24.1821     0.0000     0.0000 </r>
       <r>   -24.0601     0.0000     0.0000 </r>
       <r>   -23.9381     0.0000     0.0000 </r>
       <r>   -23.8160     0.0000     0.0000 </r>
       <r>   -23.6940     0.0000     0.0000 </r>
       <r>   -23.5719     0.0000     0.0000 </r>
       <r>   -23.4499    -0.0004    -0.0001 </r>
       <r>   -23.3278    -0.0060    -0.0008 </r>
       <r>   -23.2058    -0.0301    -0.0045 </r>
       <r>   -23.0837    -0.0052    -0.0051 </r>
       <r>   -22.9617     0.3280     0.0349 </r>
       <r>   -22.8396     0.8163     0.1346 </r>
       <r>   -22.7176     0.8310     0.2360 </r>
       <r>   -22.5955     0.5499     0.3031 </r>
       <r>   -22.4735     0.3980     0.3517 </r>
       <r>   -22.3514     0.3458     0.3939 </r>
       <r>   -22.2294     0.3134     0.4321 </r>
       <r>   -22.1073     0.2877     0.4672 </r>
       <r>   -21.9853     0.2672     0.4998 </r>
       <r>   -21.8632     0.2504     0.5304 </r>
       <r>   -21.7412     0.2368     0.5593 </r>
       <r>   -21.6191     0.2248     0.5868 </r>
       <r>   -21.4971     0.2150     0.6130 </r>
       <r>   -21.3750     0.2060     0.6381 </r>
       <r>   -21.2530     0.1985     0.6624 </r>
       <r>   -21.1309     0.1911     0.6857 </r>
       <r>   -21.0089     0.1862     0.7084 </r>
       <r>   -20.8868     0.1780     0.7301 </r>
       <r>   -20.7648     0.1775     0.7518 </r>
       <r>   -20.6428     0.1663     0.7721 </r>
       <r>   -20.5207     0.1695     0.7928 </r>
       <r>   -20.3987     0.1603     0.8123 </r>
       <r>   -20.2766     0.1561     0.8314 </r>
       <r>   -20.1546     0.1622     0.8512 </r>
       <r>   -20.0325     0.1423     0.8686 </r>
       <r>   -19.9105     0.1562     0.8876 </r>
       <r>   -19.7884     0.1490     0.9058 </r>
       <r>   -19.6664     0.1299     0.9217 </r>
       <r>   -19.5443     0.1625     0.9415 </r>
       <r>   -19.4223     0.1254     0.9568 </r>
       <r>   -19.3002     0.1345     0.9732 </r>
       <r>   -19.1782     0.1569     0.9924 </r>
       <r>   -19.0561     0.1107     1.0059 </r>
       <r>   -18.9341     0.1409     1.0231 </r>
       <r>   -18.8120     0.1446     1.0407 </r>
       <r>   -18.6900     0.1112     1.0543 </r>
       <r>   -18.5679     0.1356     1.0709 </r>
       <r>   -18.4459     0.1403     1.0880 </r>
       <r>   -18.3238     0.1187     1.1025 </r>
       <r>   -18.2018     0.1210     1.1172 </r>
       <r>   -18.0797     0.1443     1.1349 </r>
       <r>   -17.9577     0.0997     1.1470 </r>
       <r>   -17.8356     0.1201     1.1617 </r>
       <r>   -17.7136     0.5040     1.2232 </r>
       <r>   -17.5915     0.9448     1.3385 </r>
       <r>   -17.4695     0.8985     1.4482 </r>
       <r>   -17.3475     0.6346     1.5256 </r>
       <r>   -17.2254     0.4637     1.5822 </r>
       <r>   -17.1034     0.3763     1.6282 </r>
       <r>   -16.9813     0.3674     1.6730 </r>
       <r>   -16.8593     0.3194     1.7120 </r>
       <r>   -16.7372     0.4066     1.7616 </r>
       <r>   -16.6152     0.9511     1.8777 </r>
       <r>   -16.4931     1.3318     2.0402 </r>
       <r>   -16.3711     1.0853     2.1727 </r>
       <r>   -16.2490     0.8377     2.2749 </r>
       <r>   -16.1270     0.7935     2.3718 </r>
       <r>   -16.0049     0.8645     2.4773 </r>
       <r>   -15.8829     1.0381     2.6040 </r>
       <r>   -15.7608     1.0065     2.7268 </r>
       <r>   -15.6388     0.5704     2.7964 </r>
       <r>   -15.5167     0.1908     2.8197 </r>
       <r>   -15.3947     0.1368     2.8364 </r>
       <r>   -15.2726     0.1151     2.8505 </r>
       <r>   -15.1506     0.1133     2.8643 </r>
       <r>   -15.0285     0.1512     2.8828 </r>
       <r>   -14.9065     0.1465     2.9006 </r>
       <r>   -14.7844     0.0938     2.9121 </r>
       <r>   -14.6624     0.1289     2.9278 </r>
       <r>   -14.5403     0.1614     2.9475 </r>
       <r>   -14.4183     0.0935     2.9589 </r>
       <r>   -14.2962     0.0971     2.9708 </r>
       <r>   -14.1742     0.1246     2.9860 </r>
       <r>   -14.0522     0.1896     3.0091 </r>
       <r>   -13.9301     0.4475     3.0637 </r>
       <r>   -13.8081     0.6221     3.1397 </r>
       <r>   -13.6860     0.5438     3.2060 </r>
       <r>   -13.5640     0.3881     3.2534 </r>
       <r>   -13.4419     0.2939     3.2893 </r>
       <r>   -13.3199     0.3504     3.3321 </r>
       <r>   -13.1978     0.3598     3.3760 </r>
       <r>   -13.0758     0.2566     3.4073 </r>
       <r>   -12.9537     0.2877     3.4424 </r>
       <r>   -12.8317     0.3395     3.4838 </r>
       <r>   -12.7096     0.2862     3.5188 </r>
       <r>   -12.5876     0.2477     3.5490 </r>
       <r>   -12.4655     0.2967     3.5852 </r>
       <r>   -12.3435     0.3101     3.6230 </r>
       <r>   -12.2214     0.2537     3.6540 </r>
       <r>   -12.0994     0.2714     3.6871 </r>
       <r>   -11.9773     0.2846     3.7219 </r>
       <r>   -11.8553     0.2739     3.7553 </r>
       <r>   -11.7332     0.2918     3.7909 </r>
       <r>   -11.6112     0.2512     3.8216 </r>
       <r>   -11.4891     0.2555     3.8528 </r>
       <r>   -11.3671     0.3156     3.8913 </r>
       <r>   -11.2450     0.2315     3.9195 </r>
       <r>   -11.1230     0.3100     3.9574 </r>
       <r>   -11.0009     0.8486     4.0609 </r>
       <r>   -10.8789     1.1451     4.2007 </r>
       <r>   -10.7569     0.8873     4.3090 </r>
       <r>   -10.6348     0.7028     4.3948 </r>
       <r>   -10.5128     0.6845     4.4783 </r>
       <r>   -10.3907     0.6215     4.5542 </r>
       <r>   -10.2687     0.5547     4.6219 </r>
       <r>   -10.1466     0.5792     4.6926 </r>
       <r>   -10.0246     0.6576     4.7728 </r>
       <r>    -9.9025     0.7676     4.8665 </r>
       <r>    -9.7805     1.0135     4.9902 </r>
       <r>    -9.6584     1.1099     5.1256 </r>
       <r>    -9.5364     0.8151     5.2251 </r>
       <r>    -9.4143     0.5148     5.2880 </r>
       <r>    -9.2923     0.5309     5.3527 </r>
       <r>    -9.1702     0.6076     5.4269 </r>
       <r>    -9.0482     0.4751     5.4849 </r>
       <r>    -8.9261     0.4374     5.5383 </r>
       <r>    -8.8041     0.5472     5.6051 </r>
       <r>    -8.6820     0.4748     5.6630 </r>
       <r>    -8.5600     0.4215     5.7144 </r>
       <r>    -8.4379     0.4768     5.7726 </r>
       <r>    -8.3159     0.4815     5.8314 </r>
       <r>    -8.1938     0.4348     5.8845 </r>
       <r>    -8.0718     0.4372     5.9378 </r>
       <r>    -7.9497     0.4791     5.9963 </r>
       <r>    -7.8277     0.4581     6.0522 </r>
       <r>    -7.7056     0.4298     6.1047 </r>
       <r>    -7.5836     0.4846     6.1638 </r>
       <r>    -7.4616     0.4824     6.2227 </r>
       <r>    -7.3395     0.4568     6.2785 </r>
       <r>    -7.2175     0.5064     6.3403 </r>
       <r>    -7.0954     0.5292     6.4048 </r>
       <r>    -6.9734     0.5184     6.4681 </r>
       <r>    -6.8513     0.5709     6.5378 </r>
       <r>    -6.7293     0.6376     6.6156 </r>
       <r>    -6.6072     0.7684     6.7094 </r>
       <r>    -6.4852     1.1137     6.8453 </r>
       <r>    -6.3631     1.2180     6.9940 </r>
       <r>    -6.2411     0.6189     7.0695 </r>
       <r>    -6.1190     0.1287     7.0852 </r>
       <r>    -5.9970     0.1145     7.0992 </r>
       <r>    -5.8749     0.2405     7.1285 </r>
       <r>    -5.7529     0.6070     7.2026 </r>
       <r>    -5.6308     0.9282     7.3159 </r>
       <r>    -5.5088     0.7404     7.4063 </r>
       <r>    -5.3867     0.4393     7.4599 </r>
       <r>    -5.2647     0.3690     7.5049 </r>
       <r>    -5.1426     0.3652     7.5495 </r>
       <r>    -5.0206     0.2981     7.5859 </r>
       <r>    -4.8985     0.2784     7.6198 </r>
       <r>    -4.7765     0.3034     7.6569 </r>
       <r>    -4.6544     0.2602     7.6886 </r>
       <r>    -4.5324     0.2321     7.7170 </r>
       <r>    -4.4103     0.2650     7.7493 </r>
       <r>    -4.2883     0.2413     7.7788 </r>
       <r>    -4.1663     0.2097     7.8043 </r>
       <r>    -4.0442     0.2409     7.8338 </r>
       <r>    -3.9222     0.2263     7.8614 </r>
       <r>    -3.8001     0.1979     7.8855 </r>
       <r>    -3.6781     0.2197     7.9123 </r>
       <r>    -3.5560     0.2157     7.9387 </r>
       <r>    -3.4340     0.2934     7.9745 </r>
       <r>    -3.3119     0.3994     8.0232 </r>
       <r>    -3.1899     0.3027     8.0602 </r>
       <r>    -3.0678     0.2206     8.0871 </r>
       <r>    -2.9458     0.2260     8.1147 </r>
       <r>    -2.8237     0.2101     8.1403 </r>
       <r>    -2.7017     0.2432     8.1700 </r>
       <r>    -2.5796     0.2631     8.2021 </r>
       <r>    -2.4576     0.2443     8.2319 </r>
       <r>    -2.3355     0.2928     8.2677 </r>
       <r>    -2.2135     0.3323     8.3082 </r>
       <r>    -2.0914     0.3262     8.3480 </r>
       <r>    -1.9694     0.4298     8.4005 </r>
       <r>    -1.8473     0.7765     8.4952 </r>
       <r>    -1.7253     1.2593     8.6489 </r>
       <r>    -1.6032     1.1758     8.7924 </r>
       <r>    -1.4812     0.5151     8.8553 </r>
       <r>    -1.3591     0.1142     8.8692 </r>
       <r>    -1.2371     0.0752     8.8784 </r>
       <r>    -1.1150     0.1378     8.8952 </r>
       <r>    -0.9930     0.1353     8.9118 </r>
       <r>    -0.8710     0.1039     8.9244 </r>
       <r>    -0.7489     0.0924     8.9357 </r>
       <r>    -0.6269     0.1214     8.9505 </r>
       <r>    -0.5048     0.1296     8.9663 </r>
       <r>    -0.3828     0.0460     8.9720 </r>
       <r>    -0.2607     0.0897     8.9829 </r>
       <r>    -0.1387     0.5120     9.0454 </r>
       <r>    -0.0166     0.8725     9.1519 </r>
       <r>     0.1054     0.7190     9.2396 </r>
       <r>     0.2275     0.5216     9.3033 </r>
       <r>     0.3495     0.4728     9.3610 </r>
       <r>     0.4716     0.3685     9.4060 </r>
       <r>     0.5936     0.5204     9.4695 </r>
       <r>     0.7157     1.0524     9.5979 </r>
       <r>     0.8377     1.4462     9.7744 </r>
       <r>     0.9598     1.5525     9.9639 </r>
       <r>     1.0818     1.6602    10.1665 </r>
       <r>     1.2039     1.7976    10.3859 </r>
       <r>     1.3259     1.5780    10.5785 </r>
       <r>     1.4480     1.1833    10.7230 </r>
       <r>     1.5700     0.9841    10.8431 </r>
       <r>     1.6921     1.0074    10.9660 </r>
       <r>     1.8141     1.0135    11.0897 </r>
       <r>     1.9362     0.8412    11.1924 </r>
       <r>     2.0582     0.7719    11.2866 </r>
       <r>     2.1803     0.8164    11.3862 </r>
       <r>     2.3023     0.8341    11.4880 </r>
       <r>     2.4243     0.7461    11.5791 </r>
       <r>     2.5464     0.6546    11.6590 </r>
       <r>     2.6684     0.6907    11.7433 </r>
       <r>     2.7905     0.7842    11.8390 </r>
       <r>     2.9125     0.6841    11.9225 </r>
       <r>     3.0346     0.5787    11.9931 </r>
       <r>     3.1566     0.5594    12.0614 </r>
       <r>     3.2787     0.5951    12.1340 </r>
       <r>     3.4007     0.6414    12.2123 </r>
       <r>     3.5228     0.5139    12.2750 </r>
       <r>     3.6448     0.3625    12.3192 </r>
       <r>     3.7669     0.2949    12.3552 </r>
       <r>     3.8889     0.3853    12.4022 </r>
       <r>     4.0110     0.9097    12.5133 </r>
       <r>     4.1330     1.3607    12.6793 </r>
       <r>     4.2551     1.0782    12.8109 </r>
       <r>     4.3771     0.7115    12.8978 </r>
       <r>     4.4992     0.5883    12.9696 </r>
       <r>     4.6212     0.4592    13.0256 </r>
       <r>     4.7433     0.3275    13.0656 </r>
       <r>     4.8653     0.3406    13.1072 </r>
       <r>     4.9874     0.4106    13.1573 </r>
       <r>     5.1094     0.3476    13.1997 </r>
       <r>     5.2315     0.2937    13.2356 </r>
       <r>     5.3535     0.3480    13.2780 </r>
       <r>     5.4756     0.3503    13.3208 </r>
       <r>     5.5976     0.3038    13.3579 </r>
       <r>     5.7196     0.3229    13.3973 </r>
       <r>     5.8417     0.3303    13.4376 </r>
       <r>     5.9637     0.2719    13.4708 </r>
       <r>     6.0858     0.2909    13.5063 </r>
       <r>     6.2078     0.3789    13.5525 </r>
       <r>     6.3299     0.3079    13.5901 </r>
       <r>     6.4519     0.2008    13.6146 </r>
       <r>     6.5740     0.2810    13.6489 </r>
       <r>     6.6960     0.4150    13.6996 </r>
       <r>     6.8181     0.3263    13.7394 </r>
       <r>     6.9401     0.1476    13.7574 </r>
       <r>     7.0622     0.2303    13.7855 </r>
       <r>     7.1842     0.6609    13.8662 </r>
       <r>     7.3063     1.1916    14.0116 </r>
       <r>     7.4283     1.1091    14.1470 </r>
       <r>     7.5504     0.5787    14.2176 </r>
       <r>     7.6724     0.6370    14.2953 </r>
       <r>     7.7945     1.2602    14.4491 </r>
       <r>     7.9165     1.7133    14.6582 </r>
       <r>     8.0386     1.6725    14.8624 </r>
       <r>     8.1606     1.3678    15.0293 </r>
       <r>     8.2827     1.1668    15.1717 </r>
       <r>     8.4047     0.9108    15.2829 </r>
       <r>     8.5268     0.5624    15.3515 </r>
       <r>     8.6488     0.3705    15.3967 </r>
       <r>     8.7709     0.3623    15.4409 </r>
       <r>     8.8929     0.4225    15.4925 </r>
       <r>     9.0149     0.4411    15.5463 </r>
       <r>     9.1370     0.4430    15.6004 </r>
       <r>     9.2590     0.4662    15.6573 </r>
       <r>     9.3811     0.5681    15.7266 </r>
       <r>     9.5031     0.7819    15.8221 </r>
       <r>     9.6252     0.8628    15.9274 </r>
       <r>     9.7472     0.5197    15.9908 </r>
       <r>     9.8693     0.1154    16.0049 </r>
       <r>     9.9913    -0.0222    16.0022 </r>
       <r>    10.1134    -0.0151    16.0003 </r>
       <r>    10.2354    -0.0025    16.0000 </r>
       <r>    10.3575    -0.0002    16.0000 </r>
       <r>    10.4795     0.0000    16.0000 </r>
       <r>    10.6016     0.0000    16.0000 </r>
       <r>    10.7236     0.0000    16.0000 </r>
       <r>    10.8457     0.0000    16.0000 </r>
       <r>    10.9677     0.0000    16.0000 </r>
       <r>    11.0898     0.0000    16.0000 </r>
       <r>    11.2118     0.0000    16.0000 </r>
       <r>    11.3339     0.0000    16.0000 </r>
       <r>    11.4559     0.0000    16.0000 </r>
       <r>    11.5780     0.0000    16.0000 </r>
       <r>    11.7000     0.0000    16.0000 </r>
      </set>
     </set>
    </array>
   </total>
   <partial>
    <array>
     <dimension dim="1">gridpoints</dimension>
     <dimension dim="2">spin</dimension>
     <dimension dim="3">ion</dimension>
     <field>energy</field>
     <field>  s</field>
     <field> py</field>
     <field> pz</field>
     <field> px</field>
     <field>dxy</field>
     <field>dyz</field>
     <field>dz2</field>
     <field>dxz</field>
     <field>dx2</field>
     <set>
      <set comment="ion 1">
       <set comment="spin 1">
        <r>   -24.9144     0.0000     0.0000     0.0000     0.0000     0.0000     0.0000     0.0000     0.0000     0.0000 </r>
        <r>   -24.7924     0.0000     0.0000     0.0000     0.0000     0.0000     0.0000     0.0000     0.0000     0.0000 </r>
        <r>   -24.6703     0.0000     0.0000     0.0000     0.0000     0.0000     0.0000     0.0000     0.0000     0.0000 </r>
        <r>   -24.5483     0.0000     0.0000     0.0000     0.0000     0.0000     0.0000     0.0000     0.0000     0.0000 </r>
        <r>   -24.4262     0.0000     0.0000     0.0000     0.0000     0.0000     0.0000     0.0000     0.0000     0.0000 </r>
        <r>   -24.3042     0.0000     0.0000     0.0000     0.0000     0.0000     0.0000     0.0000     0.0000     0.0000 </r>
        <r>   -24.1821     0.0000     0.0000     0.0000     0.0000     0.0000     0.0000     0.0000     0.0000     0.0000 </r>
        <r>   -24.0601     0.0000     0.0000     0.0000     0.0000     0.0000     0.0000     0.0000     0.0000     0.0000 </r>
        <r>   -23.9381     0.0000     0.0000     0.0000     0.0000     0.0000     0.0000     0.0000     0.0000     0.0000 </r>
        <r>   -23.8160     0.0000     0.0000     0.0000     0.0000     0.0000     0.0000     0.0000     0.0000     0.0000 </r>
        <r>   -23.6940     0.0000     0.0000     0.0000     0.0000     0.0000     0.0000     0.0000     0.0000     0.0000 </r>
        <r>   -23.5719     0.0000     0.0000     0.0000     0.0000     0.0000     0.0000     0.0000     0.0000     0.0000 </r>
        <r>   -23.4499    -0.0001     0.0000     0.0000     0.0000     0.0000     0.0000     0.0000     0.0000     0.0000 </r>
        <r>   -23.3278    -0.0019     0.0000     0.0000     0.0000     0.0000     0.0000     0.0000     0.0000     0.0000 </r>
        <r>   -23.2058    -0.0097     0.0000     0.0000     0.0000     0.0000     0.0000     0.0000     0.0000     0.0000 </r>
        <r>   -23.0837    -0.0016     0.0000     0.0000     0.0000     0.0000     0.0000     0.0000     0.0000     0.0000 </r>
        <r>   -22.9617     0.1061     0.0000     0.0000     0.0000     0.0000     0.0000     0.0000     0.0000     0.0000 </r>
        <r>   -22.8396     0.2636     0.0004     0.0000     0.0004     0.0000     0.0000     0.0000     0.0000     0.0000 </r>
        <r>   -22.7176     0.2676     0.0009     0.0000     0.0009     0.0000     0.0000     0.0000     0.0000     0.0000 </r>
        <r>   -22.5955     0.1760     0.0013     0.0000     0.0014     0.0000     0.0000     0.0000     0.0000     0.0000 </r>
        <r>   -22.4735     0.1263     0.0016     0.0000     0.0017     0.0000     0.0000     0.0000     0.0000     0.0000 </r>
        <r>   -22.3514     0.1091     0.0018     0.0000     0.0019     0.0000     0.0000     0.0000     0.0000     0.0000 </r>
        <r>   -22.2294     0.0983     0.0020     0.0000     0.0022     0.0000     0.0000     0.0000     0.0000     0.0000 </r>
        <r>   -22.1073     0.0897     0.0022     0.0000     0.0024     0.0000     0.0000     0.0000     0.0000     0.0000 </r>
        <r>   -21.9853     0.0828     0.0024     0.0000     0.0025     0.0000     0.0000     0.0000     0.0000     0.0000 </r>
        <r>   -21.8632     0.0771     0.0025     0.0000     0.0027     0.0000     0.0000     0.0000     0.0000     0.0000 </r>
        <r>   -21.7412     0.0724     0.0027     0.0000     0.0029     0.0000     0.0000     0.0000     0.0000     0.0000 </r>
        <r>   -21.6191     0.0684     0.0028     0.0000     0.0030     0.0000     0.0000     0.0000     0.0000     0.0000 </r>
        <r>   -21.4971     0.0650     0.0029     0.0000     0.0032     0.0000     0.0000     0.0000     0.0000     0.0000 </r>
        <r>   -21.3750     0.0619     0.0031     0.0000     0.0033     0.0000     0.0000     0.0000     0.0000     0.0000 </r>
        <r>   -21.2530     0.0592     0.0032     0.0000     0.0034     0.0000     0.0000     0.0000     0.0000     0.0000 </r>
        <r>   -21.1309     0.0567     0.0033     0.0000     0.0036     0.0000     0.0000     0.0000     0.0000     0.0000 </r>
        <r>   -21.0089     0.0549     0.0035     0.0000     0.0037     0.0000     0.0000     0.0000     0.0000     0.0000 </r>
        <r>   -20.8868     0.0521     0.0035     0.0000     0.0038     0.0000     0.0000     0.0000     0.0000     0.0000 </r>
        <r>   -20.7648     0.0517     0.0038     0.0000     0.0039     0.0000     0.0000     0.0000     0.0000     0.0000 </r>
        <r>   -20.6428     0.0481     0.0036     0.0000     0.0040     0.0000     0.0000     0.0000     0.0000     0.0000 </r>
        <r>   -20.5207     0.0487     0.0040     0.0000     0.0041     0.0000     0.0000     0.0000     0.0000     0.0000 </r>
        <r>   -20.3987     0.0459     0.0038     0.0000     0.0042     0.0000     0.0000     0.0000     0.0000     0.0000 </r>
        <r>   -20.2766     0.0443     0.0040     0.0000     0.0043     0.0000     0.0000     0.0000     0.0000     0.0000 </r>
        <r>   -20.1546     0.0458     0.0044     0.0000     0.0046     0.0000     0.0000     0.0000     0.0000     0.0000 </r>
        <r>   -20.0325     0.0400     0.0038     0.0000     0.0044     0.0000     0.0000     0.0000     0.0000     0.0000 </r>
        <r>   -19.9105     0.0436     0.0047     0.0000     0.0047     0.0000     0.0000     0.0000     0.0000     0.0000 </r>
        <r>   -19.7884     0.0414     0.0043     0.0000     0.0048     0.0000     0.0000     0.0000     0.0000     0.0000 </r>
        <r>   -19.6664     0.0358     0.0040     0.0000     0.0044     0.0000     0.0000     0.0000     0.0000     0.0000 </r>
        <r>   -19.5443     0.0446     0.0054     0.0000     0.0054     0.0000     0.0000     0.0000     0.0000     0.0000 </r>
        <r>   -19.4223     0.0343     0.0040     0.0000     0.0045     0.0000     0.0000     0.0000     0.0000     0.0000 </r>
        <r>   -19.3002     0.0365     0.0046     0.0000     0.0051     0.0000     0.0000     0.0000     0.0000     0.0000 </r>
        <r>   -19.1782     0.0425     0.0058     0.0000     0.0056     0.0000     0.0000     0.0000     0.0000     0.0000 </r>
        <r>   -19.0561     0.0299     0.0038     0.0000     0.0044     0.0000     0.0000     0.0000     0.0000     0.0000 </r>
        <r>   -18.9341     0.0378     0.0051     0.0000     0.0058     0.0000     0.0000     0.0000     0.0000     0.0000 </r>
        <r>   -18.8120     0.0386     0.0060     0.0000     0.0054     0.0000     0.0000     0.0000     0.0000     0.0000 </r>
        <r>   -18.6900     0.0297     0.0039     0.0000     0.0050     0.0000     0.0000     0.0000     0.0000     0.0000 </r>
        <r>   -18.5679     0.0360     0.0053     0.0000     0.0059     0.0000     0.0000     0.0000     0.0000     0.0000 </r>
        <r>   -18.4459     0.0371     0.0064     0.0000     0.0054     0.0000     0.0000     0.0000     0.0000     0.0000 </r>
        <r>   -18.3238     0.0316     0.0042     0.0000     0.0057     0.0000     0.0000     0.0000     0.0000     0.0000 </r>
        <r>   -18.2018     0.0321     0.0049     0.0000     0.0055     0.0000     0.0000     0.0000     0.0000     0.0000 </r>
        <r>   -18.0797     0.0380     0.0069     0.0000     0.0058     0.0000     0.0000     0.0000     0.0000     0.0000 </r>
        <r>   -17.9577     0.0260     0.0042     0.0000     0.0047     0.0000     0.0000     0.0000     0.0000     0.0000 </r>
        <r>   -17.8356     0.0328     0.0044     0.0000     0.0056     0.0000     0.0000     0.0000     0.0000     0.0000 </r>
[...]
       </set>
       <set comment="band 6">
        <r>  0.0000  0.0000  0.0101  0.0000  0.0000  0.0000  0.0000  0.0000  0.0000 </r>
        <r>  0.0000  0.0000  0.0101  0.0000  0.0000  0.0000  0.0000  0.0000  0.0000 </r>
       </set>
       <set comment="band 7">
        <r>  0.0001  0.0000  0.0000  0.0000  0.0000  0.0000  0.0000  0.0000  0.0000 </r>
        <r>  0.0001  0.0000  0.0000  0.0000  0.0000  0.0000  0.0000  0.0000  0.0000 </r>
       </set>
       <set comment="band 8">
        <r>  0.0000  0.0000  0.0026  0.0000  0.0000  0.0000  0.0000  0.0000  0.0000 </r>
        <r>  0.0000  0.0000  0.0026  0.0000  0.0000  0.0000  0.0000  0.0000  0.0000 </r>
       </set>
      </set>
      <set comment="kpoint 81">
       <set comment="band 1">
        <r>  0.3115  0.0120  0.0000  0.0040  0.0000  0.0000  0.0000  0.0000  0.0000 </r>
        <r>  0.3115  0.0120  0.0000  0.0040  0.0000  0.0000  0.0000  0.0000  0.0000 </r>
       </set>
       <set comment="band 2">
        <r>  0.0000  0.0000  0.2193  0.0000  0.0000  0.0000  0.0000  0.0000  0.0000 </r>
        <r>  0.0000  0.0000  0.2193  0.0000  0.0000  0.0000  0.0000  0.0000  0.0000 </r>
       </set>
       <set comment="band 3">
        <r>  0.0641  0.2346  0.0000  0.0986  0.0000  0.0000  0.0000  0.0000  0.0000 </r>
        <r>  0.0641  0.2346  0.0000  0.0986  0.0000  0.0000  0.0000  0.0000  0.0000 </r>
       </set>
       <set comment="band 4">
        <r>  0.0033  0.1174  0.0000  0.2736  0.0000  0.0000  0.0000  0.0000  0.0000 </r>
        <r>  0.0033  0.1174  0.0000  0.2736  0.0000  0.0000  0.0000  0.0000  0.0000 </r>
       </set>
       <set comment="band 5">
        <r>  0.0086  0.0013  0.0000  0.0005  0.0000  0.0000  0.0000  0.0000  0.0000 </r>
        <r>  0.0086  0.0013  0.0000  0.0005  0.0000  0.0000  0.0000  0.0000  0.0000 </r>
       </set>
       <set comment="band 6">
        <r>  0.0000  0.0000  0.0100  0.0000  0.0000  0.0000  0.0000  0.0000  0.0000 </r>
        <r>  0.0000  0.0000  0.0100  0.0000  0.0000  0.0000  0.0000  0.0000  0.0000 </r>
       </set>
       <set comment="band 7">
        <r>  0.0001  0.0000  0.0000  0.0000  0.0000  0.0000  0.0000  0.0000  0.0000 </r>
        <r>  0.0001  0.0000  0.0000  0.0000  0.0000  0.0000  0.0000  0.0000  0.0000 </r>
       </set>
       <set comment="band 8">
        <r>  0.0000  0.0000  0.0026  0.0000  0.0000  0.0000  0.0000  0.0000  0.0000 </r>
        <r>  0.0000  0.0000  0.0026  0.0000  0.0000  0.0000  0.0000  0.0000  0.0000 </r>
       </set>
      </set>
      <set comment="kpoint 82">
       <set comment="band 1">
        <r>  0.3140  0.0095  0.0000  0.0032  0.0000  0.0000  0.0000  0.0000  0.0000 </r>
        <r>  0.3140  0.0095  0.0000  0.0032  0.0000  0.0000  0.0000  0.0000  0.0000 </r>
       </set>
       <set comment="band 2">
        <r>  0.0000  0.0000  0.2186  0.0000  0.0000  0.0000  0.0000  0.0000  0.0000 </r>
        <r>  0.0000  0.0000  0.2186  0.0000  0.0000  0.0000  0.0000  0.0000  0.0000 </r>
       </set>
       <set comment="band 3">
        <r>  0.0538  0.2457  0.0000  0.0998  0.0000  0.0000  0.0000  0.0000  0.0000 </r>
        <r>  0.0538  0.2457  0.0000  0.0998  0.0000  0.0000  0.0000  0.0000  0.0000 </r>
       </set>
       <set comment="band 4">
        <r>  0.0023  0.1158  0.0000  0.2799  0.0000  0.0000  0.0000  0.0000  0.0000 </r>
        <r>  0.0023  0.1158  0.0000  0.2799  0.0000  0.0000  0.0000  0.0000  0.0000 </r>
       </set>
       <set comment="band 5">
        <r>  0.0088  0.0011  0.0000  0.0004  0.0000  0.0000  0.0000  0.0000  0.0000 </r>
        <r>  0.0088  0.0011  0.0000  0.0004  0.0000  0.0000  0.0000  0.0000  0.0000 </r>
       </set>
       <set comment="band 6">
        <r>  0.0000  0.0000  0.0098  0.0000  0.0000  0.0000  0.0000  0.0000  0.0000 </r>
        <r>  0.0000  0.0000  0.0098  0.0000  0.0000  0.0000  0.0000  0.0000  0.0000 </r>
       </set>
       <set comment="band 7">
        <r>  0.0001  0.0000  0.0000  0.0000  0.0000  0.0000  0.0000  0.0000  0.0000 </r>
        <r>  0.0001  0.0000  0.0000  0.0000  0.0000  0.0000  0.0000  0.0000  0.0000 </r>
       </set>
       <set comment="band 8">
        <r>  0.0000  0.0000  0.0026  0.0000  0.0000  0.0000  0.0000  0.0000  0.0000 </r>
        <r>  0.0000  0.0000  0.0026  0.0000  0.0000  0.0000  0.0000  0.0000  0.0000 </r>
       </set>
      </set>
      <set comment="kpoint 83">
       <set comment="band 1">
        <r>  0.3162  0.0073  0.0000  0.0024  0.0000  0.0000  0.0000  0.0000  0.0000 </r>
        <r>  0.3162  0.0073  0.0000  0.0024  0.0000  0.0000  0.0000  0.0000  0.0000 </r>
       </set>
       <set comment="band 2">
        <r>  0.0000  0.0000  0.2180  0.0000  0.0000  0.0000  0.0000  0.0000  0.0000 </r>
        <r>  0.0000  0.0000  0.2180  0.0000  0.0000  0.0000  0.0000  0.0000  0.0000 </r>
       </set>
       <set comment="band 3">
        <r>  0.0438  0.2570  0.0000  0.1009  0.0000  0.0000  0.0000  0.0000  0.0000 </r>
        <r>  0.0438  0.2570  0.0000  0.1009  0.0000  0.0000  0.0000  0.0000  0.0000 </r>
       </set>
       <set comment="band 4">
        <r>  0.0014  0.1139  0.0000  0.2860  0.0000  0.0000  0.0000  0.0000  0.0000 </r>
        <r>  0.0014  0.1139  0.0000  0.2860  0.0000  0.0000  0.0000  0.0000  0.0000 </r>
       </set>
       <set comment="band 5">
        <r>  0.0090  0.0009  0.0000  0.0003  0.0000  0.0000  0.0000  0.0000  0.0000 </r>
        <r>  0.0090  0.0009  0.0000  0.0003  0.0000  0.0000  0.0000  0.0000  0.0000 </r>
       </set>
       <set comment="band 6">
        <r>  0.0000  0.0000  0.0097  0.0000  0.0000  0.0000  0.0000  0.0000  0.0000 </r>
        <r>  0.0000  0.0000  0.0097  0.0000  0.0000  0.0000  0.0000  0.0000  0.0000 </r>
       </set>
       <set comment="band 7">
        <r>  0.0001  0.0000  0.0000  0.0000  0.0000  0.0000  0.0000  0.0000  0.0000 </r>
        <r>  0.0001  0.0000  0.0000  0.0000  0.0000  0.0000  0.0000  0.0000  0.0000 </r>
       </set>
       <set comment="band 8">
        <r>  0.0000  0.0000  0.0026  0.0000  0.0000  0.0000  0.0000  0.0000  0.0000 </r>
        <r>  0.0000  0.0000  0.0026  0.0000  0.0000  0.0000  0.0000  0.0000  0.0000 </r>
       </set>
      </set>
      <set comment="kpoint 84">
       <set comment="band 1">
        <r>  0.3182  0.0054  0.0000  0.0018  0.0000  0.0000  0.0000  0.0000  0.0000 </r>
        <r>  0.3182  0.0054  0.0000  0.0018  0.0000  0.0000  0.0000  0.0000  0.0000 </r>
       </set>
       <set comment="band 2">
        <r>  0.0000  0.0000  0.2174  0.0000  0.0000  0.0000  0.0000  0.0000  0.0000 </r>
        <r>  0.0000  0.0000  0.2174  0.0000  0.0000  0.0000  0.0000  0.0000  0.0000 </r>
       </set>
       <set comment="band 3">
        <r>  0.0342  0.2681  0.0000  0.1017  0.0000  0.0000  0.0000  0.0000  0.0000 </r>
        <r>  0.0342  0.2681  0.0000  0.1017  0.0000  0.0000  0.0000  0.0000  0.0000 </r>
       </set>
       <set comment="band 4">
        <r>  0.0008  0.1118  0.0000  0.2918  0.0000  0.0000  0.0000  0.0000  0.0000 </r>
        <r>  0.0008  0.1118  0.0000  0.2918  0.0000  0.0000  0.0000  0.0000  0.0000 </r>
       </set>
       <set comment="band 5">
        <r>  0.0092  0.0006  0.0000  0.0002  0.0000  0.0000  0.0000  0.0000  0.0000 </r>
        <r>  0.0092  0.0006  0.0000  0.0002  0.0000  0.0000  0.0000  0.0000  0.0000 </r>
       </set>
       <set comment="band 6">
        <r>  0.0000  0.0000  0.0096  0.0000  0.0000  0.0000  0.0000  0.0000  0.0000 </r>
        <r>  0.0000  0.0000  0.0096  0.0000  0.0000  0.0000  0.0000  0.0000  0.0000 </r>
       </set>
       <set comment="band 7">
        <r>  0.0001  0.0000  0.0000  0.0000  0.0000  0.0000  0.0000  0.0000  0.0000 </r>
        <r>  0.0001  0.0000  0.0000  0.0000  0.0000  0.0000  0.0000  0.0000  0.0000 </r>
       </set>
       <set comment="band 8">
        <r>  0.0000  0.0000  0.0026  0.0000  0.0000  0.0000  0.0000  0.0000  0.0000 </r>
        <r>  0.0000  0.0000  0.0026  0.0000  0.0000  0.0000  0.0000  0.0000  0.0000 </r>
       </set>
      </set>
      <set comment="kpoint 85">
       <set comment="band 1">
        <r>  0.3198  0.0037  0.0000  0.0012  0.0000  0.0000  0.0000  0.0000  0.0000 </r>
        <r>  0.3198  0.0037  0.0000  0.0012  0.0000  0.0000  0.0000  0.0000  0.0000 </r>
       </set>
       <set comment="band 2">
        <r>  0.0000  0.0000  0.2170  0.0000  0.0000  0.0000  0.0000  0.0000  0.0000 </r>
        <r>  0.0000  0.0000  0.2170  0.0000  0.0000  0.0000  0.0000  0.0000  0.0000 </r>
       </set>
       <set comment="band 3">
        <r>  0.0251  0.2788  0.0000  0.1024  0.0000  0.0000  0.0000  0.0000  0.0000 </r>
        <r>  0.0251  0.2788  0.0000  0.1024  0.0000  0.0000  0.0000  0.0000  0.0000 </r>
       </set>
       <set comment="band 4">
        <r>  0.0004  0.1097  0.0000  0.2970  0.0000  0.0000  0.0000  0.0000  0.0000 </r>
        <r>  0.0004  0.1097  0.0000  0.2970  0.0000  0.0000  0.0000  0.0000  0.0000 </r>
       </set>
       <set comment="band 5">
        <r>  0.0094  0.0005  0.0000  0.0002  0.0000  0.0000  0.0000  0.0000  0.0000 </r>
        <r>  0.0094  0.0005  0.0000  0.0002  0.0000  0.0000  0.0000  0.0000  0.0000 </r>
       </set>
       <set comment="band 6">
        <r>  0.0000  0.0000  0.0095  0.0000  0.0000  0.0000  0.0000  0.0000  0.0000 </r>
        <r>  0.0000  0.0000  0.0095  0.0000  0.0000  0.0000  0.0000  0.0000  0.0000 </r>
       </set>
       <set comment="band 7">
        <r>  0.0001  0.0000  0.0000  0.0000  0.0000  0.0000  0.0000  0.0000  0.0000 </r>
        <r>  0.0001  0.0000  0.0000  0.0000  0.0000  0.0000  0.0000  0.0000  0.0000 </r>
       </set>
       <set comment="band 8">
        <r>  0.0000  0.0000  0.0026  0.0000  0.0000  0.0000  0.0000  0.0000  0.0000 </r>
        <r>  0.0000  0.0000  0.0026  0.0000  0.0000  0.0000  0.0000  0.0000  0.0000 </r>
       </set>
      </set>
      <set comment="kpoint 86">
       <set comment="band 1">
        <r>  0.3212  0.0024  0.0000  0.0008  0.0000  0.0000  0.0000  0.0000  0.0000 </r>
        <r>  0.3212  0.0024  0.0000  0.0008  0.0000  0.0000  0.0000  0.0000  0.0000 </r>
       </set>
       <set comment="band 2">
        <r>  0.0000  0.0000  0.2166  0.0000  0.0000  0.0000  0.0000  0.0000  0.0000 </r>
        <r>  0.0000  0.0000  0.2166  0.0000  0.0000  0.0000  0.0000  0.0000  0.0000 </r>
       </set>
       <set comment="band 3">
        <r>  0.0169  0.2887  0.0000  0.1029  0.0000  0.0000  0.0000  0.0000  0.0000 </r>
        <r>  0.0169  0.2887  0.0000  0.1029  0.0000  0.0000  0.0000  0.0000  0.0000 </r>
       </set>
       <set comment="band 4">
        <r>  0.0002  0.1077  0.0000  0.3015  0.0000  0.0000  0.0000  0.0000  0.0000 </r>
        <r>  0.0002  0.1077  0.0000  0.3015  0.0000  0.0000  0.0000  0.0000  0.0000 </r>
       </set>
       <set comment="band 5">
        <r>  0.0095  0.0003  0.0000  0.0001  0.0000  0.0000  0.0000  0.0000  0.0000 </r>
        <r>  0.0095  0.0003  0.0000  0.0001  0.0000  0.0000  0.0000  0.0000  0.0000 </r>
       </set>
       <set comment="band 6">
        <r>  0.0000  0.0000  0.0095  0.0000  0.0000  0.0000  0.0000  0.0000  0.0000 </r>
        <r>  0.0000  0.0000  0.0095  0.0000  0.0000  0.0000  0.0000  0.0000  0.0000 </r>
       </set>
       <set comment="band 7">
        <r>  0.0001  0.0000  0.0000  0.0000  0.0000  0.0000  0.0000  0.0000  0.0000 </r>
        <r>  0.0001  0.0000  0.0000  0.0000  0.0000  0.0000  0.0000  0.0000  0.0000 </r>
       </set>
       <set comment="band 8">
        <r>  0.0000  0.0000  0.0026  0.0000  0.0000  0.0000  0.0000  0.0000  0.0000 </r>
        <r>  0.0000  0.0000  0.0026  0.0000  0.0000  0.0000  0.0000  0.0000  0.0000 </r>
       </set>
      </set>
      <set comment="kpoint 87">
       <set comment="band 1">
        <r>  0.3223  0.0014  0.0000  0.0005  0.0000  0.0000  0.0000  0.0000  0.0000 </r>
        <r>  0.3223  0.0014  0.0000  0.0005  0.0000  0.0000  0.0000  0.0000  0.0000 </r>
       </set>
       <set comment="band 2">
        <r>  0.0000  0.0000  0.2163  0.0000  0.0000  0.0000  0.0000  0.0000  0.0000 </r>
        <r>  0.0000  0.0000  0.2163  0.0000  0.0000  0.0000  0.0000  0.0000  0.0000 </r>
       </set>
       <set comment="band 3">
        <r>  0.0099  0.2974  0.0000  0.1032  0.0000  0.0000  0.0000  0.0000  0.0000 </r>
        <r>  0.0099  0.2974  0.0000  0.1032  0.0000  0.0000  0.0000  0.0000  0.0000 </r>
       </set>
       <set comment="band 4">
        <r>  0.0001  0.1060  0.0000  0.3052  0.0000  0.0000  0.0000  0.0000  0.0000 </r>
        <r>  0.0001  0.1060  0.0000  0.3052  0.0000  0.0000  0.0000  0.0000  0.0000 </r>
       </set>
       <set comment="band 5">
        <r>  0.0097  0.0002  0.0000  0.0001  0.0000  0.0000  0.0000  0.0000  0.0000 </r>
        <r>  0.0097  0.0002  0.0000  0.0001  0.0000  0.0000  0.0000  0.0000  0.0000 </r>
       </set>
       <set comment="band 6">
        <r>  0.0000  0.0000  0.0094  0.0000  0.0000  0.0000  0.0000  0.0000  0.0000 </r>
        <r>  0.0000  0.0000  0.0094  0.0000  0.0000  0.0000  0.0000  0.0000  0.0000 </r>
       </set>
       <set comment="band 7">
        <r>  0.0001  0.0000  0.0000  0.0000  0.0000  0.0000  0.0000  0.0000  0.0000 </r>
        <r>  0.0001  0.0000  0.0000  0.0000  0.0000  0.0000  0.0000  0.0000  0.0000 </r>
       </set>
       <set comment="band 8">
        <r>  0.0000  0.0000  0.0026  0.0000  0.0000  0.0000  0.0000  0.0000  0.0000 </r>
        <r>  0.0000  0.0000  0.0026  0.0000  0.0000  0.0000  0.0000  0.0000  0.0000 </r>
       </set>
      </set>
      <set comment="kpoint 88">
       <set comment="band 1">
        <r>  0.3230  0.0006  0.0000  0.0002  0.0000  0.0000  0.0000  0.0000  0.0000 </r>
        <r>  0.3230  0.0006  0.0000  0.0002  0.0000  0.0000  0.0000  0.0000  0.0000 </r>
       </set>
       <set comment="band 2">
        <r>  0.0000  0.0000  0.2162  0.0000  0.0000  0.0000  0.0000  0.0000  0.0000 </r>
        <r>  0.0000  0.0000  0.2162  0.0000  0.0000  0.0000  0.0000  0.0000  0.0000 </r>
       </set>
       <set comment="band 3">
        <r>  0.0045  0.3042  0.0000  0.1034  0.0000  0.0000  0.0000  0.0000  0.0000 </r>
        <r>  0.0045  0.3042  0.0000  0.1034  0.0000  0.0000  0.0000  0.0000  0.0000 </r>
       </set>
       <set comment="band 4">
        <r>  0.0000  0.1046  0.0000  0.3079  0.0000  0.0000  0.0000  0.0000  0.0000 </r>
        <r>  0.0000  0.1046  0.0000  0.3079  0.0000  0.0000  0.0000  0.0000  0.0000 </r>
       </set>
       <set comment="band 5">
        <r>  0.0098  0.0001  0.0000  0.0000  0.0000  0.0000  0.0000  0.0000  0.0000 </r>
        <r>  0.0098  0.0001  0.0000  0.0000  0.0000  0.0000  0.0000  0.0000  0.0000 </r>
       </set>
       <set comment="band 6">
        <r>  0.0000  0.0000  0.0094  0.0000  0.0000  0.0000  0.0000  0.0000  0.0000 </r>
        <r>  0.0000  0.0000  0.0094  0.0000  0.0000  0.0000  0.0000  0.0000  0.0000 </r>
       </set>
       <set comment="band 7">
        <r>  0.0001  0.0000  0.0000  0.0000  0.0000  0.0000  0.0000  0.0000  0.0000 </r>
        <r>  0.0001  0.0000  0.0000  0.0000  0.0000  0.0000  0.0000  0.0000  0.0000 </r>
       </set>
       <set comment="band 8">
        <r>  0.0000  0.0000  0.0026  0.0000  0.0000  0.0000  0.0000  0.0000  0.0000 </r>
        <r>  0.0000  0.0000  0.0026  0.0000  0.0000  0.0000  0.0000  0.0000  0.0000 </r>
       </set>
      </set>
      <set comment="kpoint 89">
       <set comment="band 1">
        <r>  0.3235  0.0002  0.0000  0.0001  0.0000  0.0000  0.0000  0.0000  0.0000 </r>
        <r>  0.3235  0.0002  0.0000  0.0001  0.0000  0.0000  0.0000  0.0000  0.0000 </r>
       </set>
       <set comment="band 2">
        <r>  0.0000  0.0000  0.2161  0.0000  0.0000  0.0000  0.0000  0.0000  0.0000 </r>
        <r>  0.0000  0.0000  0.2161  0.0000  0.0000  0.0000  0.0000  0.0000  0.0000 </r>
       </set>
       <set comment="band 3">
        <r>  0.0012  0.3084  0.0000  0.1036  0.0000  0.0000  0.0000  0.0000  0.0000 </r>
        <r>  0.0012  0.3084  0.0000  0.1036  0.0000  0.0000  0.0000  0.0000  0.0000 </r>
       </set>
       <set comment="band 4">
        <r>  0.0000  0.1039  0.0000  0.3094  0.0000  0.0000  0.0000  0.0000  0.0000 </r>
        <r>  0.0000  0.1039  0.0000  0.3094  0.0000  0.0000  0.0000  0.0000  0.0000 </r>
       </set>
       <set comment="band 5">
        <r>  0.0098  0.0000  0.0000  0.0000  0.0000  0.0000  0.0000  0.0000  0.0000 </r>
        <r>  0.0098  0.0000  0.0000  0.0000  0.0000  0.0000  0.0000  0.0000  0.0000 </r>
       </set>
       <set comment="band 6">
        <r>  0.0000  0.0000  0.0094  0.0000  0.0000  0.0000  0.0000  0.0000  0.0000 </r>
        <r>  0.0000  0.0000  0.0094  0.0000  0.0000  0.0000  0.0000  0.0000  0.0000 </r>
       </set>
       <set comment="band 7">
        <r>  0.0001  0.0000  0.0000  0.0000  0.0000  0.0000  0.0000  0.0000  0.0000 </r>
        <r>  0.0001  0.0000  0.0000  0.0000  0.0000  0.0000  0.0000  0.0000  0.0000 </r>
       </set>
       <set comment="band 8">
        <r>  0.0000  0.0000  0.0026  0.0000  0.0000  0.0000  0.0000  0.0000  0.0000 </r>
        <r>  0.0000  0.0000  0.0026  0.0000  0.0000  0.0000  0.0000  0.0000  0.0000 </r>
       </set>
      </set>
      <set comment="kpoint 90">
       <set comment="band 1">
        <r>  0.3236  0.0000  0.0000  0.0000  0.0000  0.0000  0.0000  0.0000  0.0000 </r>
        <r>  0.3236  0.0000  0.0000  0.0000  0.0000  0.0000  0.0000  0.0000  0.0000 </r>
       </set>
       <set comment="band 2">
        <r>  0.0000  0.0000  0.2160  0.0000  0.0000  0.0000  0.0000  0.0000  0.0000 </r>
        <r>  0.0000  0.0000  0.2160  0.0000  0.0000  0.0000  0.0000  0.0000  0.0000 </r>
       </set>
       <set comment="band 3">
        <r>  0.0000  0.0273  0.0000  0.3862  0.0000  0.0000  0.0000  0.0000  0.0000 </r>
        <r>  0.0000  0.0273  0.0000  0.3862  0.0000  0.0000  0.0000  0.0000  0.0000 </r>
       </set>
       <set comment="band 4">
        <r>  0.0000  0.3862  0.0000  0.0273  0.0000  0.0000  0.0000  0.0000  0.0000 </r>
        <r>  0.0000  0.3862  0.0000  0.0273  0.0000  0.0000  0.0000  0.0000  0.0000 </r>
       </set>
       <set comment="band 5">
        <r>  0.0098  0.0000  0.0000  0.0000  0.0000  0.0000  0.0000  0.0000  0.0000 </r>
        <r>  0.0098  0.0000  0.0000  0.0000  0.0000  0.0000  0.0000  0.0000  0.0000 </r>
       </set>
       <set comment="band 6">
        <r>  0.0000  0.0000  0.0093  0.0000  0.0000  0.0000  0.0000  0.0000  0.0000 </r>
        <r>  0.0000  0.0000  0.0093  0.0000  0.0000  0.0000  0.0000  0.0000  0.0000 </r>
       </set>
       <set comment="band 7">
        <r>  0.0001  0.0000  0.0000  0.0000  0.0000  0.0000  0.0000  0.0000  0.0000 </r>
        <r>  0.0001  0.0000  0.0000  0.0000  0.0000  0.0000  0.0000  0.0000  0.0000 </r>
       </set>
       <set comment="band 8">
        <r>  0.0000  0.0000  0.0026  0.0000  0.0000  0.0000  0.0000  0.0000  0.0000 </r>
        <r>  0.0000  0.0000  0.0026  0.0000  0.0000  0.0000  0.0000  0.0000  0.0000 </r>
       </set>
      </set>
     </set>
    </set>
   </array>
  </projected>
 </calculation>
 <structure name="finalpos" >
  <crystal>
   <varray name="basis" >
    <v>       2.46380000       0.00000000       0.00000000 </v>
    <v>      -1.23190000       2.13370008       0.00000000 </v>
    <v>       0.00000000       0.00000000      34.49320000 </v>
   </varray>
   <i name="volume">    181.33110586 </i>
   <varray name="rec_basis" >
    <v>       0.40587710       0.23433472       0.00000000 </v>
    <v>       0.00000000       0.46866943       0.00000000 </v>
    <v>       0.00000000       0.00000000       0.02899122 </v>
   </varray>
  </crystal>
  <varray name="positions" >
   <v>       0.00000000       0.00000000       0.00000000 </v>
   <v>       0.33333330       0.66666670       0.00000000 </v>
  </varray>
  <varray name="selective"  type="logical" >
   <v type="logical" >  T  T  F </v>
   <v type="logical" >  T  T  F </v>
  </varray>
  <nose>
   <v>      -3.00000000       0.00000000       0.00010000       0.00010000 </v>
  </nose>
 </structure>
</modeling>
