   1   1   1   0
  0.1185948E+02  0.2559727E-09  0.2559727E-09  0.2559727E-09  0.5000000E-15
  1.000000000000000E-004
  CAR 
 "Cu metal"                              
     34.98655428     -4.00888982  301      5.93073155      1.00000000
     -4.009  0.0000E+00  0.0000E+00
     -3.879  0.0000E+00  0.0000E+00
     -3.749  0.0000E+00  0.0000E+00
     -3.619 -0.7711E-28 -0.1002E-28
     -3.489 -0.1676E-23 -0.2179E-24
     -3.359 -0.1559E-19 -0.2027E-20
     -3.229 -0.6194E-16 -0.8053E-17
     -3.099 -0.1016E-12 -0.1321E-13
     -2.969 -0.7266E-10 -0.9457E-11
     -2.839 -0.2197E-07 -0.2865E-08
     -2.709 -0.2784E-05 -0.3647E-06
     -2.579 -0.1453E-03 -0.1925E-04
     -2.449 -0.2996E-02 -0.4087E-03
     -2.319 -0.2137E-01 -0.3187E-02
     -2.189 -0.1554E-01 -0.5206E-02
     -2.059  0.2619E+00  0.2884E-01
     -1.929  0.7127E+00  0.1215E+00
     -1.799  0.7122E+00  0.2140E+00
     -1.669  0.4586E+00  0.2737E+00
     -1.539  0.3403E+00  0.3179E+00
     -1.409  0.2994E+00  0.3568E+00
     -1.279  0.2719E+00  0.3922E+00
     -1.149  0.2505E+00  0.4247E+00
     -1.019  0.2338E+00  0.4551E+00
     -0.889  0.2205E+00  0.4838E+00
     -0.759  0.2096E+00  0.5110E+00
     -0.629  0.2004E+00  0.5371E+00
     -0.499  0.1931E+00  0.5622E+00
     -0.369  0.1862E+00  0.5864E+00
     -0.239  0.1813E+00  0.6099E+00
     -0.109  0.1763E+00  0.6328E+00
      0.021  0.1726E+00  0.6553E+00
      0.151  0.1696E+00  0.6773E+00
      0.281  0.1665E+00  0.6990E+00
      0.411  0.1655E+00  0.7205E+00
      0.541  0.1629E+00  0.7416E+00
      0.671  0.1637E+00  0.7629E+00
      0.801  0.1621E+00  0.7840E+00
      0.931  0.1643E+00  0.8054E+00
      1.061  0.1649E+00  0.8268E+00
      1.191  0.1682E+00  0.8487E+00
      1.320  0.1724E+00  0.8711E+00
      1.450  0.1778E+00  0.8942E+00
      1.580  0.1875E+00  0.9186E+00
      1.710  0.1982E+00  0.9443E+00
      1.840  0.2168E+00  0.9725E+00
      1.970  0.2436E+00  0.1004E+01
      2.100  0.3158E+00  0.1045E+01
      2.230  0.4448E+00  0.1103E+01
      2.360  0.6897E+00  0.1193E+01
      2.490  0.1237E+01  0.1353E+01
      2.620  0.1374E+01  0.1532E+01
      2.750  0.8781E+00  0.1646E+01
      2.880  0.1066E+01  0.1785E+01
      3.010  0.2082E+01  0.2055E+01
      3.140  0.2325E+01  0.2358E+01
      3.270  0.1741E+01  0.2584E+01
      3.400  0.1116E+01  0.2729E+01
      3.530  0.5662E+00  0.2803E+01
      3.660  0.3829E+00  0.2852E+01
      3.790  0.6715E+00  0.2940E+01
      3.920  0.1124E+01  0.3086E+01
      4.050  0.1328E+01  0.3258E+01
      4.180  0.2095E+01  0.3531E+01
      4.310  0.4798E+01  0.4154E+01
      4.440  0.7085E+01  0.5075E+01
      4.570  0.5141E+01  0.5744E+01
      4.700  0.2384E+01  0.6054E+01
      4.830  0.2082E+01  0.6324E+01
      4.960  0.2656E+01  0.6669E+01
      5.090  0.4169E+01  0.7211E+01
      5.220  0.5674E+01  0.7949E+01
      5.350  0.4591E+01  0.8546E+01
      5.480  0.3519E+01  0.9003E+01
      5.610  0.4266E+01  0.9558E+01
      5.740  0.5341E+01  0.1025E+02
      5.870  0.4507E+01  0.1084E+02
      6.000  0.1988E+01  0.1110E+02
      6.130  0.2942E+00  0.1113E+02
      6.260  0.1055E+00  0.1115E+02
      6.390  0.2080E+00  0.1117E+02
      6.520  0.1342E+00  0.1119E+02
      6.650  0.9063E-01  0.1120E+02
      6.780  0.9588E-01  0.1122E+02
      6.910  0.7648E-01  0.1123E+02
      7.040  0.9005E-01  0.1124E+02
      7.170  0.8219E-01  0.1125E+02
      7.300  0.6972E-01  0.1126E+02
      7.430  0.8658E-01  0.1127E+02
      7.560  0.6710E-01  0.1128E+02
      7.690  0.7647E-01  0.1129E+02
      7.820  0.7435E-01  0.1130E+02
      7.950  0.6528E-01  0.1131E+02
      8.080  0.8477E-01  0.1132E+02
      8.210  0.6266E-01  0.1133E+02
      8.340  0.7313E-01  0.1133E+02
      8.470  0.8547E-01  0.1135E+02
      8.600  0.6002E-01  0.1135E+02
      8.730  0.2098E+00  0.1138E+02
      8.860  0.4867E+00  0.1144E+02
      8.990  0.4730E+00  0.1151E+02
      9.120  0.3012E+00  0.1154E+02
      9.250  0.2542E+00  0.1158E+02
      9.380  0.2252E+00  0.1161E+02
      9.510  0.1804E+00  0.1163E+02
      9.640  0.1855E+00  0.1165E+02
      9.770  0.2044E+00  0.1168E+02
      9.899  0.1732E+00  0.1170E+02
     10.029  0.1445E+00  0.1172E+02
     10.159  0.1653E+00  0.1174E+02
     10.289  0.1833E+00  0.1177E+02
     10.419  0.1504E+00  0.1179E+02
     10.549  0.1271E+00  0.1180E+02
     10.679  0.1490E+00  0.1182E+02
     10.809  0.1668E+00  0.1185E+02
     10.939  0.1512E+00  0.1186E+02
     11.069  0.1902E+00  0.1189E+02
     11.199  0.2505E+00  0.1192E+02
     11.329  0.2454E+00  0.1195E+02
     11.459  0.2029E+00  0.1198E+02
     11.589  0.1837E+00  0.1200E+02
     11.719  0.1682E+00  0.1203E+02
     11.849  0.1311E+00  0.1204E+02
     11.979  0.1062E+00  0.1206E+02
     12.109  0.8852E-01  0.1207E+02
     12.239  0.5702E-01  0.1208E+02
     12.369  0.8589E-01  0.1209E+02
     12.499  0.1273E+00  0.1210E+02
     12.629  0.8279E-01  0.1211E+02
     12.759  0.5251E-01  0.1212E+02
     12.889  0.7656E-01  0.1213E+02
     13.019  0.1402E+00  0.1215E+02
     13.149  0.1641E+00  0.1217E+02
     13.279  0.1264E+00  0.1219E+02
     13.409  0.1296E+00  0.1220E+02
     13.539  0.1306E+00  0.1222E+02
     13.669  0.9556E-01  0.1223E+02
     13.799  0.1155E+00  0.1225E+02
     13.929  0.1513E+00  0.1227E+02
     14.059  0.8732E-01  0.1228E+02
     14.189  0.3756E-01  0.1228E+02
     14.319  0.3394E+00  0.1233E+02
     14.449  0.1072E+01  0.1247E+02
     14.579  0.1360E+01  0.1264E+02
     14.709  0.8687E+00  0.1276E+02
     14.839  0.3166E+00  0.1280E+02
     14.969  0.3006E+00  0.1284E+02
     15.099  0.5321E+00  0.1291E+02
     15.229  0.4487E+00  0.1297E+02
     15.359  0.2844E+00  0.1300E+02
     15.489  0.2373E+00  0.1303E+02
     15.619  0.2001E+00  0.1306E+02
     15.749  0.1789E+00  0.1308E+02
     15.879  0.2102E+00  0.1311E+02
     16.009  0.2330E+00  0.1314E+02
     16.139  0.1830E+00  0.1316E+02
     16.269  0.1358E+00  0.1318E+02
     16.399  0.1847E+00  0.1321E+02
     16.529  0.2404E+00  0.1324E+02
     16.659  0.1783E+00  0.1326E+02
     16.789  0.1047E+00  0.1327E+02
     16.919  0.1606E+00  0.1329E+02
     17.049  0.2409E+00  0.1333E+02
     17.179  0.1885E+00  0.1335E+02
     17.309  0.1011E+00  0.1336E+02
     17.439  0.1276E+00  0.1338E+02
     17.569  0.2211E+00  0.1341E+02
     17.699  0.1978E+00  0.1343E+02
     17.829  0.1312E+00  0.1345E+02
     17.959  0.1257E+00  0.1347E+02
     18.089  0.1481E+00  0.1349E+02
     18.219  0.2023E+00  0.1351E+02
     18.348  0.1786E+00  0.1354E+02
     18.478  0.1337E+00  0.1355E+02
     18.608  0.1396E+00  0.1357E+02
     18.738  0.1320E+00  0.1359E+02
     18.868  0.1806E+00  0.1361E+02
     18.998  0.2177E+00  0.1364E+02
     19.128  0.1451E+00  0.1366E+02
     19.258  0.8049E-01  0.1367E+02
     19.388  0.1528E+00  0.1369E+02
     19.518  0.2434E+00  0.1372E+02
     19.648  0.1884E+00  0.1375E+02
     19.778  0.1145E+00  0.1376E+02
     19.908  0.1399E+00  0.1378E+02
     20.038  0.1774E+00  0.1380E+02
     20.168  0.2310E+00  0.1383E+02
     20.298  0.6253E+00  0.1391E+02
     20.428  0.1132E+01  0.1406E+02
     20.558  0.1011E+01  0.1419E+02
     20.688  0.6828E+00  0.1428E+02
     20.818  0.5428E+00  0.1435E+02
     20.948  0.4747E+00  0.1441E+02
     21.078  0.4189E+00  0.1447E+02
     21.208  0.4074E+00  0.1452E+02
     21.338  0.4130E+00  0.1457E+02
     21.468  0.3532E+00  0.1462E+02
     21.598  0.3199E+00  0.1466E+02
     21.728  0.3626E+00  0.1471E+02
     21.858  0.3619E+00  0.1476E+02
     21.988  0.3243E+00  0.1480E+02
     22.118  0.2624E+00  0.1483E+02
     22.248  0.2874E+00  0.1487E+02
     22.378  0.3664E+00  0.1492E+02
     22.508  0.3220E+00  0.1496E+02
     22.638  0.1988E+00  0.1498E+02
     22.768  0.1692E+00  0.1501E+02
     22.898  0.2016E+00  0.1503E+02
     23.028  0.1981E+00  0.1506E+02
     23.158  0.2140E+00  0.1509E+02
     23.288  0.1776E+00  0.1511E+02
     23.418  0.1978E+00  0.1514E+02
     23.548  0.2129E+00  0.1516E+02
     23.678  0.1250E+00  0.1518E+02
     23.808  0.1744E+00  0.1520E+02
     23.938  0.2230E+00  0.1523E+02
     24.068  0.1994E+00  0.1526E+02
     24.198  0.2101E+00  0.1528E+02
     24.328  0.1071E+00  0.1530E+02
     24.458  0.9192E-01  0.1531E+02
     24.588  0.2692E+00  0.1534E+02
     24.718  0.2505E+00  0.1538E+02
     24.848  0.1279E+00  0.1539E+02
     24.978  0.1312E+00  0.1541E+02
     25.108  0.1104E+00  0.1543E+02
     25.238  0.1851E+00  0.1545E+02
     25.368  0.2991E+00  0.1549E+02
     25.498  0.1701E+00  0.1551E+02
     25.628  0.3993E-01  0.1552E+02
     25.758  0.1293E+00  0.1553E+02
     25.888  0.2321E+00  0.1556E+02
     26.018  0.2144E+00  0.1559E+02
     26.148  0.1653E+00  0.1561E+02
     26.278  0.1262E+00  0.1563E+02
     26.408  0.1165E+00  0.1564E+02
     26.538  0.2162E+00  0.1567E+02
     26.668  0.2965E+00  0.1571E+02
     26.798  0.2057E+00  0.1574E+02
     26.927  0.1389E+00  0.1576E+02
     27.057  0.2044E+00  0.1578E+02
     27.187  0.2381E+00  0.1581E+02
     27.317  0.2211E+00  0.1584E+02
     27.447  0.1970E+00  0.1587E+02
     27.577  0.1838E+00  0.1589E+02
     27.707  0.1700E+00  0.1591E+02
     27.837  0.1986E+00  0.1594E+02
     27.967  0.2426E+00  0.1597E+02
     28.097  0.1714E+00  0.1599E+02
     28.227  0.1314E+00  0.1601E+02
     28.357  0.3370E+00  0.1605E+02
     28.487  0.5422E+00  0.1612E+02
     28.617  0.4659E+00  0.1618E+02
     28.747  0.3964E+00  0.1624E+02
     28.877  0.3972E+00  0.1629E+02
     29.007  0.3092E+00  0.1633E+02
     29.137  0.2611E+00  0.1636E+02
     29.267  0.5843E+00  0.1644E+02
     29.397  0.9557E+00  0.1656E+02
     29.527  0.7855E+00  0.1666E+02
     29.657  0.5667E+00  0.1674E+02
     29.787  0.7055E+00  0.1683E+02
     29.917  0.8566E+00  0.1694E+02
     30.047  0.6033E+00  0.1702E+02
     30.177  0.3432E+00  0.1706E+02
     30.307  0.3834E+00  0.1711E+02
     30.437  0.4379E+00  0.1717E+02
     30.567  0.3757E+00  0.1722E+02
     30.697  0.3461E+00  0.1726E+02
     30.827  0.3414E+00  0.1731E+02
     30.957  0.2747E+00  0.1734E+02
     31.087  0.1846E+00  0.1737E+02
     31.217  0.2047E+00  0.1740E+02
     31.347  0.2623E+00  0.1743E+02
     31.477  0.2529E+00  0.1746E+02
     31.607  0.3487E+00  0.1751E+02
     31.737  0.4308E+00  0.1756E+02
     31.867  0.3913E+00  0.1761E+02
     31.997  0.3562E+00  0.1766E+02
     32.127  0.3712E+00  0.1771E+02
     32.257  0.3964E+00  0.1776E+02
     32.387  0.5478E+00  0.1783E+02
     32.517  0.6526E+00  0.1792E+02
     32.647  0.3670E+00  0.1796E+02
     32.777  0.8122E-01  0.1797E+02
     32.907  0.4827E-01  0.1798E+02
     33.037  0.9374E-01  0.1799E+02
     33.167  0.5620E-01  0.1800E+02
     33.297  0.2228E-02  0.1800E+02
     33.427 -0.4115E-02  0.1800E+02
     33.557 -0.7170E-03  0.1800E+02
     33.687 -0.3914E-04  0.1800E+02
     33.817 -0.8155E-06  0.1800E+02
     33.947 -0.6871E-08  0.1800E+02
     34.077 -0.2398E-10  0.1800E+02
     34.207 -0.3504E-13  0.1800E+02
     34.337 -0.4271E-16  0.1800E+02
     34.467  0.0000E+00  0.1800E+02
     34.597  0.0000E+00  0.1800E+02
     34.727  0.0000E+00  0.1800E+02
     34.857  0.0000E+00  0.1800E+02
     34.987  0.0000E+00  0.1800E+02
     34.98655428     -4.00888982  301      5.93073155      1.00000000
     -4.009  0.0000E+00  0.0000E+00  0.0000E+00  0.0000E+00  0.0000E+00  0.0000E+00  0.0000E+00  0.0000E+00  0.0000E+00
     -3.879  0.0000E+00  0.0000E+00  0.0000E+00  0.0000E+00  0.0000E+00  0.0000E+00  0.0000E+00  0.0000E+00  0.0000E+00
     -3.749  0.0000E+00  0.0000E+00  0.0000E+00  0.0000E+00  0.0000E+00  0.0000E+00  0.0000E+00  0.0000E+00  0.0000E+00
     -3.619 -0.4516E-28 -0.4660E-32 -0.1010E-31 -0.2095E-32 -0.3383E-35 -0.9579E-35 -0.7265E-35 -0.3383E-35 -0.1212E-35
     -3.489 -0.9818E-24 -0.1116E-27 -0.2419E-27 -0.5014E-28 -0.8800E-31 -0.2492E-30 -0.1894E-30 -0.8800E-31 -0.3151E-31
     -3.359 -0.9129E-20 -0.1151E-23 -0.2497E-23 -0.5175E-24 -0.9937E-27 -0.2813E-26 -0.2138E-26 -0.9937E-27 -0.3556E-27
     -3.229 -0.3627E-16 -0.5129E-20 -0.1112E-19 -0.2305E-20 -0.4885E-23 -0.1382E-22 -0.1051E-22 -0.4885E-23 -0.1747E-23
     -3.099 -0.5948E-13 -0.9563E-17 -0.2072E-16 -0.4301E-17 -0.1020E-19 -0.2881E-19 -0.2186E-19 -0.1020E-19 -0.3635E-20
     -2.969 -0.4254E-10 -0.7876E-14 -0.1708E-13 -0.3540E-14 -0.9464E-17 -0.2676E-16 -0.2035E-16 -0.9464E-17 -0.3379E-17
     -2.839 -0.1286E-07 -0.2799E-11 -0.6070E-11 -0.1258E-11 -0.3866E-14 -0.1093E-13 -0.8308E-14 -0.3866E-14 -0.1378E-14
     -2.709 -0.1630E-05 -0.4283E-09 -0.9287E-09 -0.1925E-09 -0.6947E-12 -0.1962E-11 -0.1492E-11 -0.6947E-12 -0.2473E-12
     -2.579 -0.8503E-04 -0.2807E-07 -0.6087E-07 -0.1262E-07 -0.5513E-10 -0.1556E-09 -0.1184E-09 -0.5513E-10 -0.1959E-10
     -2.449 -0.1753E-02 -0.7770E-06 -0.1685E-05 -0.3492E-06 -0.1934E-08 -0.5452E-08 -0.4151E-08 -0.1934E-08 -0.6854E-09
     -2.319 -0.1249E-01 -0.8671E-05 -0.1881E-04 -0.3897E-05 -0.2976E-07 -0.8371E-07 -0.6381E-07 -0.2976E-07 -0.1050E-07
     -2.189 -0.8987E-02 -0.3178E-04 -0.6896E-04 -0.1428E-04 -0.1907E-06 -0.5341E-06 -0.4081E-06 -0.1907E-06 -0.6667E-07
     -2.059  0.1533E+00  0.3277E-04  0.7090E-04  0.1474E-04 -0.3537E-06 -0.9758E-06 -0.7525E-06 -0.3537E-06 -0.1197E-06
     -1.929  0.4160E+00  0.4307E-03  0.9341E-03  0.1936E-03  0.1167E-05  0.3333E-05  0.2517E-05  0.1167E-05  0.4247E-06
     -1.799  0.4134E+00  0.1068E-02  0.2318E-02  0.4799E-03  0.7208E-05  0.2024E-04  0.1544E-04  0.7208E-05  0.2531E-05
     -1.669  0.2629E+00  0.1584E-02  0.3440E-02  0.7114E-03  0.1869E-04  0.5196E-04  0.3988E-04  0.1869E-04  0.6434E-05
     -1.539  0.1923E+00  0.1935E-02  0.4206E-02  0.8687E-03  0.3485E-04  0.9599E-04  0.7410E-04  0.3485E-04  0.1176E-04
     -1.409  0.1672E+00  0.2219E-02  0.4829E-02  0.9959E-03  0.5535E-04  0.1509E-03  0.1172E-03  0.5535E-04  0.1830E-04
     -1.279  0.1500E+00  0.2472E-02  0.5385E-02  0.1109E-02  0.8036E-04  0.2169E-03  0.1695E-03  0.8036E-04  0.2598E-04
     -1.149  0.1365E+00  0.2702E-02  0.5892E-02  0.1211E-02  0.1103E-03  0.2943E-03  0.2316E-03  0.1103E-03  0.3484E-04
     -1.019  0.1258E+00  0.2914E-02  0.6361E-02  0.1305E-02  0.1455E-03  0.3842E-03  0.3043E-03  0.1455E-03  0.4489E-04
     -0.889  0.1170E+00  0.3112E-02  0.6801E-02  0.1393E-02  0.1869E-03  0.4872E-03  0.3889E-03  0.1869E-03  0.5615E-04
     -0.759  0.1097E+00  0.3300E-02  0.7217E-02  0.1474E-02  0.2350E-03  0.6058E-03  0.4867E-03  0.2350E-03  0.6887E-04
     -0.629  0.1034E+00  0.3471E-02  0.7606E-02  0.1551E-02  0.2908E-03  0.7391E-03  0.5986E-03  0.2908E-03  0.8267E-04
     -0.499  0.9819E-01  0.3647E-02  0.7998E-02  0.1624E-02  0.3556E-03  0.8927E-03  0.7293E-03  0.3556E-03  0.9833E-04
     -0.369  0.9328E-01  0.3801E-02  0.8344E-02  0.1694E-02  0.4308E-03  0.1066E-02  0.8759E-03  0.4308E-03  0.1153E-03
     -0.239  0.8937E-01  0.3962E-02  0.8721E-02  0.1760E-02  0.5180E-03  0.1260E-02  0.1049E-02  0.5180E-03  0.1338E-03
     -0.109  0.8545E-01  0.4114E-02  0.9050E-02  0.1824E-02  0.6194E-03  0.1490E-02  0.1245E-02  0.6194E-03  0.1554E-03
      0.021  0.8227E-01  0.4248E-02  0.9387E-02  0.1885E-02  0.7381E-03  0.1733E-02  0.1469E-02  0.7381E-03  0.1759E-03
      0.151  0.7927E-01  0.4412E-02  0.9743E-02  0.1942E-02  0.8763E-03  0.2044E-02  0.1743E-02  0.8763E-03  0.2044E-03
      0.281  0.7640E-01  0.4515E-02  0.1001E-01  0.1999E-02  0.1040E-02  0.2345E-02  0.2027E-02  0.1040E-02  0.2262E-03
      0.411  0.7429E-01  0.4699E-02  0.1043E-01  0.2051E-02  0.1234E-02  0.2775E-02  0.2420E-02  0.1234E-02  0.2638E-03
      0.541  0.7159E-01  0.4772E-02  0.1061E-01  0.2101E-02  0.1463E-02  0.3159E-02  0.2791E-02  0.1463E-02  0.2871E-03
      0.671  0.7016E-01  0.4967E-02  0.1110E-01  0.2151E-02  0.1741E-02  0.3751E-02  0.3351E-02  0.1741E-02  0.3351E-03
      0.801  0.6779E-01  0.5033E-02  0.1124E-01  0.2194E-02  0.2076E-02  0.4273E-02  0.3868E-02  0.2076E-02  0.3620E-03
      0.931  0.6665E-01  0.5208E-02  0.1173E-01  0.2237E-02  0.2487E-02  0.5080E-02  0.4662E-02  0.2487E-02  0.4195E-03
      1.061  0.6494E-01  0.5303E-02  0.1191E-01  0.2276E-02  0.3001E-02  0.5856E-02  0.5446E-02  0.3001E-02  0.4559E-03
      1.191  0.6383E-01  0.5424E-02  0.1235E-01  0.2309E-02  0.3645E-02  0.6972E-02  0.6584E-02  0.3645E-02  0.5194E-03
      1.320  0.6302E-01  0.5573E-02  0.1263E-01  0.2338E-02  0.4477E-02  0.8210E-02  0.7863E-02  0.4477E-02  0.5739E-03
      1.450  0.6199E-01  0.5628E-02  0.1299E-01  0.2359E-02  0.5571E-02  0.9851E-02  0.9590E-02  0.5571E-02  0.6404E-03
      1.580  0.6215E-01  0.5821E-02  0.1341E-01  0.2370E-02  0.7045E-02  0.1195E-01  0.1179E-01  0.7045E-02  0.7202E-03
      1.710  0.6166E-01  0.5821E-02  0.1371E-01  0.2367E-02  0.9078E-02  0.1466E-01  0.1473E-01  0.9078E-02  0.7924E-03
      1.840  0.6293E-01  0.6012E-02  0.1423E-01  0.2345E-02  0.1188E-01  0.1837E-01  0.1875E-01  0.1188E-01  0.8987E-03
      1.970  0.6457E-01  0.5978E-02  0.1459E-01  0.2289E-02  0.1703E-01  0.2445E-01  0.2334E-01  0.1703E-01  0.9877E-03
      2.100  0.7394E-01  0.6001E-02  0.1517E-01  0.2102E-02  0.3432E-01  0.4303E-01  0.2072E-01  0.3433E-01  0.1118E-02
      2.230  0.8967E-01  0.5468E-02  0.1575E-01  0.1485E-02  0.6624E-01  0.7644E-01  0.1743E-01  0.6629E-01  0.1240E-02
      2.360  0.9280E-01  0.4727E-02  0.1662E-01  0.5427E-03  0.6231E-01  0.7473E-01  0.2321E+00  0.6271E-01  0.1395E-02
      2.490  0.8800E-01  0.4717E-02  0.1466E-01  0.3648E-03  0.1409E-01  0.3245E-01  0.8381E+00  0.1807E-01  0.1551E-02
      2.620  0.7373E-01  0.5890E-02  0.8560E-02  0.1312E-02 -0.3393E-01  0.1471E-01  0.1066E+01 -0.2626E-02  0.1525E-02
      2.750  0.4473E-01  0.7023E-02  0.4790E-02  0.2185E-02 -0.4851E-01  0.1917E-01  0.6988E+00 -0.1576E-02  0.3271E-03
      2.880  0.3001E-01  0.7758E-02  0.4826E-02  0.2605E-02  0.3909E+00  0.2414E-01  0.4620E+00 -0.1762E-03  0.4477E-03
      3.010  0.2650E-01  0.9933E-02  0.5560E-02  0.4316E-02  0.1375E+01  0.3634E-01  0.3748E+00 -0.7083E-05  0.2031E-01
      3.140  0.2438E-01  0.1561E-01  0.7001E-02  0.8605E-02  0.1634E+01  0.1020E+00  0.2263E+00 -0.2067E-05  0.6006E-01
      3.270  0.2381E-01  0.2234E-01  0.1095E-01  0.1138E-01  0.1049E+01  0.2611E+00  0.9295E-01 -0.9234E-04  0.7897E-01
      3.400  0.1733E-01  0.2076E-01  0.1393E-01  0.6724E-02  0.4842E+00  0.3126E+00  0.4762E-01 -0.1721E-02  0.8632E-01
      3.530  0.4714E-02  0.1157E-01  0.1068E-01  0.1634E-03  0.2088E+00  0.1328E+00  0.3689E-01 -0.1095E-01  0.1066E+00
      3.660 -0.6743E-03  0.5285E-02  0.5721E-02 -0.6599E-03  0.1826E+00  0.3775E-02  0.3656E-01 -0.4497E-02  0.1163E+00
      3.790 -0.6157E-03  0.2929E-02  0.3051E-02  0.8767E-02  0.3327E+00 -0.4896E-02  0.3574E-01  0.1281E+00  0.1096E+00
      3.920 -0.1766E-03  0.2291E-02  0.2302E-02  0.2234E-01  0.5451E+00  0.8560E-02  0.3009E-01  0.3264E+00  0.9931E-01
      4.050  0.2183E-02  0.4969E-02  0.4973E-02  0.2500E-01  0.6405E+00  0.6441E-01  0.1575E-01  0.3843E+00  0.8351E-01
      4.180  0.6095E-02  0.9544E-02  0.9479E-02  0.2282E-01  0.8769E+00  0.2991E+00  0.6192E-01  0.5445E+00  0.1308E+00
      4.310  0.6933E-02  0.1016E-01  0.9461E-02  0.2008E-01  0.1479E+01  0.1125E+01  0.3068E+00  0.1233E+01  0.3877E+00
      4.440  0.5552E-02  0.9167E-02  0.7919E-02  0.1758E-01  0.1717E+01  0.2086E+01  0.4905E+00  0.1865E+01  0.6039E+00
      4.570  0.6635E-02  0.8646E-02  0.1437E-01  0.1599E-01  0.1022E+01  0.1709E+01  0.3304E+00  0.1430E+01  0.3964E+00
      4.700  0.1450E-01  0.7613E-02  0.3143E-01  0.1204E-01  0.3105E+00  0.6929E+00  0.3818E+00  0.7202E+00  0.9375E-01
      4.830  0.2125E-01  0.7675E-02  0.4347E-01  0.7905E-02  0.1132E+00  0.3235E+00  0.8945E+00  0.4891E+00  0.6713E-01
      4.960  0.1856E-01  0.8276E-02  0.4253E-01  0.6956E-02  0.1231E+00  0.3253E+00  0.1307E+01  0.4717E+00  0.2326E+00
      5.090  0.1460E-01  0.8398E-02  0.3886E-01  0.7402E-02  0.1515E+00  0.3537E+00  0.1878E+01  0.4833E+00  0.1107E+01
      5.220  0.1336E-01  0.8736E-02  0.3700E-01  0.8021E-02  0.1972E+00  0.4102E+00  0.2077E+01  0.5220E+00  0.2263E+01
      5.350  0.1306E-01  0.9557E-02  0.3545E-01  0.8987E-02  0.2368E+00  0.4614E+00  0.1029E+01  0.5562E+00  0.2126E+01
      5.480  0.1314E-01  0.1018E-01  0.3408E-01  0.9718E-02  0.2777E+00  0.4877E+00  0.2514E+00  0.5884E+00  0.1757E+01
      5.610  0.1275E-01  0.1025E-01  0.3192E-01  0.9709E-02  0.3400E+00  0.6758E+00  0.2044E+00  0.7833E+00  0.2116E+01
      5.740  0.1313E-01  0.1016E-01  0.3007E-01  0.9440E-02  0.3079E+00  0.1287E+01  0.2390E+00  0.1341E+01  0.2026E+01
      5.870  0.1256E-01  0.1024E-01  0.2520E-01  0.9349E-02  0.1241E+00  0.1676E+01  0.1282E+00  0.1650E+01  0.8097E+00
      6.000  0.1261E-01  0.1117E-01  0.2283E-01  0.1012E-01  0.1175E-02  0.9490E+00  0.2792E-01  0.8974E+00  0.7317E-02
      6.130  0.1275E-01  0.1521E-01  0.2612E-01  0.1400E-01 -0.8178E-02  0.1237E+00  0.1491E-01  0.7878E-01 -0.3568E-01
      6.260  0.1080E-01  0.2370E-01  0.3290E-01  0.2234E-01 -0.7486E-03 -0.2241E-01  0.1545E-01 -0.6120E-01  0.1254E-01
      6.390  0.1198E-01  0.2274E-01  0.3587E-01  0.2125E-01  0.2227E-03  0.2084E-01  0.1783E-01 -0.1402E-01  0.1819E-01
      6.520  0.9814E-02  0.8428E-02  0.1818E-01  0.6805E-02  0.1587E-05  0.3054E-01  0.1360E-01 -0.1009E-02  0.1593E-01
      6.650  0.1012E-01  0.9880E-03  0.1252E-01 -0.7392E-03 -0.2760E-04  0.2839E-01  0.1214E-01 -0.5512E-04  0.1367E-01
      6.780  0.1157E-01  0.1280E-02  0.1555E-01 -0.5797E-03 -0.6093E-05  0.2604E-01  0.1317E-01 -0.6399E-05  0.1196E-01
      6.910  0.8830E-02  0.1826E-02  0.1080E-01 -0.7102E-04 -0.4742E-06  0.2318E-01  0.8502E-02 -0.4756E-06  0.1027E-01
      7.040  0.1095E-01  0.2089E-02  0.1695E-01 -0.3074E-05 -0.1509E-07  0.2194E-01  0.9961E-02 -0.1510E-07  0.9357E-02
      7.170  0.1029E-01  0.2008E-02  0.1595E-01 -0.5281E-07 -0.2029E-09  0.1910E-01  0.9117E-02 -0.2028E-09  0.7965E-02
      7.300  0.8719E-02  0.2262E-02  0.1241E-01 -0.3738E-09 -0.1152E-11  0.1823E-01  0.6149E-02 -0.1127E-11  0.7331E-02
      7.430  0.1073E-01  0.2265E-02  0.2019E-01 -0.7159E-12  0.4629E-14  0.1728E-01  0.8136E-02  0.3593E-13  0.6863E-02
      7.560  0.8592E-02  0.2062E-02  0.1537E-01  0.4178E-12  0.7904E-14  0.1339E-01  0.5982E-02  0.2377E-13  0.5158E-02
      7.690  0.9572E-02  0.2861E-02  0.1659E-01  0.6255E-12  0.1095E-13  0.1714E-01  0.5375E-02  0.1298E-13  0.6487E-02
      7.820  0.8663E-02  0.1914E-02  0.2179E-01  0.3428E-12  0.7341E-14  0.1104E-01  0.5847E-02  0.9683E-14  0.4157E-02
      7.950  0.8050E-02  0.2520E-02  0.1671E-01  0.2893E-12  0.8158E-14  0.1189E-01  0.4211E-02 -0.3514E-11  0.4322E-02
      8.080  0.9800E-02  0.3225E-02  0.2302E-01  0.6966E-12  0.1539E-13  0.1517E-01  0.4729E-02 -0.6468E-09  0.5504E-02
      8.210  0.6182E-02  0.1549E-02  0.2220E-01  0.5763E-12  0.1047E-13  0.6904E-02  0.3650E-02 -0.5074E-07  0.2488E-02
      8.340  0.7675E-02  0.2852E-02  0.2312E-01  0.3796E-12  0.3485E-14  0.1049E-01  0.3226E-02 -0.1686E-05  0.3667E-02
      8.470  0.9451E-02  0.3727E-02  0.2497E-01  0.3876E-12  0.2989E-14  0.1388E-01  0.3642E-02 -0.2289E-04  0.4869E-02
      8.600  0.4294E-02  0.1359E-02  0.2517E-01  0.2269E-12  0.3820E-14  0.4879E-02  0.2056E-02 -0.1095E-03  0.1744E-02
      8.730  0.5529E-02  0.2493E-02  0.1098E+00  0.8608E-12  0.1001E-13  0.7328E-02  0.1819E-02  0.3778E-05  0.2485E-02
      8.860  0.8451E-02  0.4535E-02  0.2625E+00  0.2852E-11  0.1928E-13  0.1481E-01  0.1927E-02  0.1287E-02  0.4598E-02
      8.990  0.3416E-02  0.1904E-02  0.2659E+00  0.3245E-11  0.2043E-13  0.9531E-02  0.6835E-03  0.3722E-02  0.1980E-02
      9.120  0.1980E-02  0.1261E-02  0.1663E+00  0.2238E-11  0.3199E-13  0.8785E-02  0.3058E-03  0.5760E-02  0.1004E-02
      9.250  0.7437E-02  0.4650E-02  0.1216E+00  0.2339E-11  0.5063E-13  0.1818E-01  0.1235E-02  0.6950E-02  0.3729E-02
      9.380  0.6231E-02  0.3864E-02  0.1070E+00  0.1518E-11  0.3498E-13  0.1721E-01  0.1049E-02  0.7744E-02  0.3149E-02
      9.510  0.9397E-03  0.5809E-03  0.9492E-01  0.1184E-11  0.2018E-13  0.9790E-02  0.1587E-03  0.8359E-02  0.4763E-03
      9.640  0.3636E-02  0.2522E-02  0.8988E-01  0.1830E-11  0.5572E-13  0.1380E-01  0.5392E-03  0.8849E-02  0.1618E-02
      9.770  0.8280E-02  0.5685E-02  0.8756E-01  0.1412E-11  0.8533E-13  0.2064E-01  0.1243E-02  0.9243E-02  0.3729E-02
      9.899  0.4164E-02  0.2833E-02  0.8031E-01  0.1902E-11  0.6262E-13  0.1533E-01  0.6295E-03  0.9563E-02  0.1888E-02
     10.029  0.2465E-03  0.1832E-03  0.7405E-01  0.4080E-11  0.8659E-13  0.1015E-01  0.3484E-04  0.9824E-02  0.1045E-03
     10.159  0.4462E-02  0.3423E-02  0.7425E-01  0.4596E-11 -0.1937E-10  0.1571E-01  0.6139E-03  0.1004E-01  0.1842E-02
     10.289  0.8114E-02  0.6180E-02  0.7440E-01 -0.6649E-11 -0.4072E-08  0.2059E-01  0.1123E-02  0.1021E-01  0.3369E-02
     10.419  0.3279E-02  0.2470E-02  0.6843E-01 -0.1091E-08 -0.3527E-06  0.1457E-01  0.4561E-03  0.1036E-01  0.1368E-02
     10.549 -0.1113E-03 -0.4601E-04  0.6392E-01 -0.5214E-07 -0.1241E-04  0.1036E-01 -0.1033E-04  0.1046E-01 -0.3098E-04
     10.679  0.3506E-02  0.3479E-02  0.6567E-01 -0.1007E-05 -0.1654E-03  0.1530E-01  0.5309E-03  0.1040E-01  0.1593E-02
     10.809  0.5788E-02  0.6703E-02  0.6730E-01 -0.7388E-05 -0.6298E-03  0.1956E-01  0.1034E-02  0.1001E-01  0.3102E-02
     10.939  0.7549E-02  0.2948E-02  0.6209E-01 -0.1313E-04  0.1228E-02  0.1618E-01  0.4606E-03  0.1193E-01  0.1382E-02
     11.069  0.3136E-01 -0.2085E-03  0.5762E-01  0.5390E-04  0.9591E-02  0.1999E-01 -0.3791E-04  0.2034E-01 -0.1137E-03
     11.199  0.5208E-01  0.2881E-02  0.5950E-01  0.1181E-03  0.1495E-01  0.2887E-01  0.3412E-03  0.2573E-01  0.1024E-02
     11.329  0.4202E-01  0.7617E-02  0.6336E-01 -0.4572E-03  0.1031E-01  0.3000E-01  0.9464E-03  0.2117E-01  0.2839E-02
     11.459  0.2658E-01  0.5174E-02  0.6104E-01  0.1446E-02  0.6804E-02  0.2318E-01  0.5916E-03  0.1793E-01  0.1775E-02
     11.589  0.1703E-01  0.7083E-03  0.5414E-01  0.1479E-01  0.8050E-02  0.1596E-01 -0.5704E-05  0.1888E-01 -0.1711E-04
     11.719  0.1630E-01  0.1964E-02  0.3725E-01  0.2360E-01  0.9341E-02  0.1291E-01  0.1115E-03  0.1658E-01  0.3346E-03
     11.849  0.2161E-01  0.7491E-02  0.1617E-01  0.1466E-01  0.7655E-02  0.1334E-01  0.7592E-03  0.9450E-02  0.2278E-02
     11.979  0.1596E-01  0.7453E-02  0.5828E-02  0.1919E-01  0.6999E-02  0.9705E-02  0.7890E-03  0.6669E-02  0.2367E-02
     12.109  0.1555E-01  0.2693E-02  0.1803E-02  0.2068E-01  0.8533E-02  0.5542E-02  0.1462E-03  0.8350E-02  0.4387E-03
     12.239  0.1191E-01  0.8369E-03  0.7346E-03  0.1269E-01  0.6260E-02  0.3302E-02 -0.4894E-04  0.6239E-02 -0.1468E-03
     12.369  0.9250E-02  0.4676E-02  0.4672E-02  0.2100E-01  0.6466E-02  0.5500E-02  0.4254E-03  0.6466E-02  0.1277E-02
     12.499  0.1976E-01  0.1004E-01  0.1005E-01  0.1826E-01  0.7873E-02  0.1171E-01  0.8939E-03  0.7879E-02  0.2692E-02
     12.629  0.1417E-01  0.5545E-02  0.5659E-02  0.1236E-01  0.5853E-02  0.7256E-02  0.4082E-03  0.5944E-02  0.1372E-02
     12.759  0.3337E-02 -0.2353E-03  0.2163E-03  0.2117E-01  0.5676E-02  0.8874E-03 -0.2361E-03  0.6035E-02 -0.1256E-03
     12.889  0.1196E-01  0.3503E-02  0.2718E-02  0.1695E-01  0.7406E-02  0.4060E-02  0.4151E-03  0.6770E-02  0.2368E-03
     13.019  0.2015E-01  0.1522E-01  0.8853E-02  0.1919E-01  0.1156E-01  0.9260E-02  0.3449E-02  0.6466E-02  0.2149E-02
     13.149  0.1395E-01  0.1926E-01  0.8441E-02  0.3259E-01  0.1458E-01  0.7294E-02  0.5505E-02  0.6043E-02  0.2542E-02
     13.279  0.1323E-01  0.1474E-01  0.3465E-02  0.2565E-01  0.1367E-01  0.3653E-02  0.5123E-02  0.5033E-02  0.6933E-03
     13.409  0.1854E-01  0.1358E-01  0.2488E-02  0.2379E-01  0.1492E-01  0.4005E-02  0.4838E-02  0.6709E-02 -0.1267E-03
     13.539  0.1147E-01  0.1242E-01  0.1226E-02  0.3369E-01  0.1529E-01  0.1998E-02  0.5008E-02  0.7294E-02 -0.5811E-04
     13.669  0.5781E-02  0.1168E-01  0.3286E-03  0.2477E-01  0.1146E-01  0.4383E-03  0.5252E-02  0.3638E-02 -0.5489E-05
     13.799  0.1287E-01  0.1387E-01  0.2332E-02  0.2218E-01  0.1273E-01  0.3005E-02  0.5543E-02  0.5085E-02 -0.1851E-06
     13.929  0.1424E-01  0.1478E-01  0.2994E-02  0.3524E-01  0.1651E-01  0.3891E-02  0.5415E-02  0.9031E-02 -0.2467E-08
     14.059 -0.2071E-02  0.1279E-01  0.7402E-03  0.2715E-01  0.1188E-01  0.9913E-03  0.4003E-03  0.4591E-02 -0.1352E-10
     14.189 -0.1571E-01  0.1280E-01  0.5267E-03  0.1927E-01  0.9365E-02  0.6128E-03 -0.8274E-02  0.2274E-02 -0.5603E-11
     14.319  0.8650E-01  0.1591E-01  0.3005E-02  0.3460E-01  0.1519E-01  0.3458E-02  0.7037E-01  0.8288E-02 -0.1373E-08
     14.449  0.3686E+00  0.2068E-01  0.3141E-02  0.3755E-01  0.1447E-01  0.3364E-02  0.3084E+00  0.7711E-02 -0.1407E-06
     14.579  0.4699E+00  0.2898E-01  0.1245E-02  0.3429E-01  0.8123E-02  0.5027E-03  0.4194E+00  0.1888E-02 -0.5856E-05
     14.709  0.2591E+00  0.2862E-01  0.2112E-02  0.4374E-01  0.8339E-02  0.6823E-03  0.2583E+00  0.4706E-02 -0.9402E-04
     14.839  0.7592E-01  0.1319E-01  0.4646E-02  0.3299E-01  0.1020E-01  0.3459E-02  0.6922E-01  0.8736E-02 -0.4870E-03
     14.969  0.1318E+00  0.4057E-02  0.5232E-02  0.1033E-01  0.1190E-01  0.3165E-02  0.4334E-01  0.4810E-02  0.1938E-03
     15.099  0.2437E+00  0.6027E-02  0.3390E-02  0.1541E-01  0.1734E-01  0.8635E-03  0.8405E-01  0.3062E-02  0.6287E-02
     15.229  0.1797E+00  0.1043E-01  0.2930E-02  0.3022E-01  0.1861E-01  0.1623E-02  0.5239E-01  0.6262E-02  0.1419E-01
     15.359  0.9369E-01  0.1409E-01  0.8013E-02  0.2262E-01  0.1443E-01  0.4511E-02  0.1787E-01  0.6098E-02  0.1541E-01
     15.489  0.7195E-01  0.1452E-01  0.9855E-02  0.1717E-01  0.1190E-01  0.4407E-02  0.1512E-01  0.4602E-02  0.1300E-01
     15.619  0.5213E-01  0.1222E-01  0.4304E-02  0.2818E-01  0.1279E-01  0.1626E-02  0.7888E-02  0.5641E-02  0.1114E-01
     15.749  0.4453E-01  0.1239E-01  0.3684E-02  0.2656E-01  0.1184E-01  0.1307E-02  0.5540E-02  0.4836E-02  0.9862E-02
     15.879  0.5688E-01  0.1559E-01  0.1073E-01  0.1656E-01  0.1059E-01  0.3918E-02  0.1452E-01  0.3759E-02  0.8840E-02
     16.009  0.5575E-01  0.1676E-01  0.1160E-01  0.2508E-01  0.1343E-01  0.4749E-02  0.1425E-01  0.6748E-02  0.7961E-02
     16.139  0.3686E-01  0.1417E-01  0.4482E-02  0.3207E-01  0.1348E-01  0.2174E-02  0.4509E-02  0.6919E-02  0.7266E-02
     16.269  0.3117E-01  0.1314E-01  0.3502E-02  0.1891E-01  0.8742E-02  0.1104E-02  0.4038E-02  0.2326E-02  0.6558E-02