    1    1    1    1
  0.1185948E+02  0.2559727E-09  0.2559727E-09  0.2559727E-09  0.5000000E-15
  1.000000000000000E-004
  CAR 
 "Cu metal"                              
   11  160    9
 
  0.5000000E+00  0.5000000E+00  0.5000000E+00  0.6250000E-02
   1        2.283888
   2        4.302113
   3        4.302113
   4        5.725342
   5        5.725342
   6        6.321592
   7       11.066679
   8       28.393500
   9       29.297272
 
  0.4871795E+00  0.4871795E+00  0.4871795E+00  0.6250000E-02
   1        2.280445
   2        4.302909
   3        4.302909
   4        5.723478
   5        5.723478
   6        6.289133
   7       11.114045
   8       28.398130
   9       29.298555
 
  0.4743590E+00  0.4743590E+00  0.4743590E+00  0.6250000E-02
   1        2.269923
   2        4.305290
   3        4.305290
   4        5.717913
   5        5.717913
   6        6.195958
   7       11.252095
   8       28.412008
   9       29.302323
 
  0.4615385E+00  0.4615385E+00  0.4615385E+00  0.6250000E-02
   1        2.251779
   2        4.309232
   3        4.309232
   4        5.708709
   5        5.708709
   6        6.053040
   7       11.470403
   8       28.435052
   9       29.308754
 
  0.4487179E+00  0.4487179E+00  0.4487179E+00  0.6250000E-02
   1        2.225129
   2        4.314876
   3        4.314876
   4        5.696113
   5        5.696113
   6        5.874353
   7       11.755853
   8       28.467084
   9       29.318053
 
  0.4358974E+00  0.4358974E+00  0.4358974E+00  0.6250000E-02
   1        2.188688
   2        4.321942
   3        4.321942
   4        5.673776
   5        5.680111
   6        5.680111
   7       12.095811
   8       28.507799
   9       29.330836
 
  0.4230769E+00  0.4230769E+00  0.4230769E+00  0.6250000E-02
   1        2.140722
   2        4.330241
   3        4.330241
   4        5.463435
   5        5.660705
   6        5.660705
   7       12.479663
   8       28.557172
   9       29.346597
 
  0.4102564E+00  0.4102564E+00  0.4102564E+00  0.6250000E-02
   1        2.079371
   2        4.339830
   3        4.339830
   4        5.253380
   5        5.638147
   6        5.638147
   7       12.899094
   8       28.615263
   9       29.366297
 
  0.3974359E+00  0.3974359E+00  0.3974359E+00  0.6250000E-02
   1        2.002892
   2        4.350595
   3        4.350595
   4        5.051713
   5        5.612901
   6        5.612901
   7       13.347878
   8       28.679925
   9       29.390188
 
  0.3846154E+00  0.3846154E+00  0.3846154E+00  0.6250000E-02
   1        1.909525
   2        4.362399
   3        4.362399
   4        4.864789
   5        5.585139
   6        5.585139
   7       13.821299
   8       28.752603
   9       29.418657
 
  0.3717949E+00  0.3717949E+00  0.3717949E+00  0.6250000E-02
   1        1.797970
   2        4.375088
   3        4.375088
   4        4.697009
   5        5.555171
   6        5.555171
   7       14.315837
   8       28.832505
   9       29.451932
 
  0.3589744E+00  0.3589744E+00  0.3589744E+00  0.6250000E-02
   1        1.667994
   2        4.388483
   3        4.388483
   4        4.551241
   5        5.523339
   6        5.523339
   7       14.828826
   8       28.918584
   9       29.490374
 
  0.3461538E+00  0.3461538E+00  0.3461538E+00  0.6250000E-02
   1        1.520405
   2        4.402377
   3        4.402377
   4        4.428568
   5        5.490013
   6        5.490013
   7       15.358189
   8       29.015662
   9       29.534093
 
  0.3333333E+00  0.3333333E+00  0.3333333E+00  0.6250000E-02
   1        1.357044
   2        4.328560
   3        4.416535
   4        4.416535
   5        5.455595
   6        5.455595
   7       15.902303
   8       29.104716
   9       29.583530
 
  0.3205128E+00  0.3205128E+00  0.3205128E+00  0.6250000E-02
   1        1.180532
   2        4.249644
   3        4.430694
   4        4.430694
   5        5.420517
   6        5.420517
   7       16.459894
   8       29.205010
   9       29.638792
 
  0.3076923E+00  0.3076923E+00  0.3076923E+00  0.6250000E-02
   1        0.993925
   2        4.189554
   3        4.444555
   4        4.444555
   5        5.385251
   6        5.385251
   7       17.029906
   8       29.305649
   9       29.700096
 
  0.2948718E+00  0.2948718E+00  0.2948718E+00  0.6250000E-02
   1        0.800413
   2        4.145736
   3        4.457791
   4        4.457791
   5        5.350302
   6        5.350302
   7       17.611444
   8       29.410524
   9       29.767604
 
  0.2820513E+00  0.2820513E+00  0.2820513E+00  0.6250000E-02
   1        0.602969
   2        4.115624
   3        4.469987
   4        4.469987
   5        5.315935
   6        5.315935
   7       18.203714
   8       29.542181
   9       29.841418
 
  0.2692308E+00  0.2692308E+00  0.2692308E+00  0.6250000E-02
   1        0.404262
   2        4.096980
   3        4.480844
   4        4.480844
   5        5.283229
   6        5.283229
   7       18.806097
   8       29.620551
   9       29.921685
 
  0.2564103E+00  0.2564103E+00  0.2564103E+00  0.6250000E-02
   1        0.206531
   2        4.087716
   3        4.489906
   4        4.489906
   5        5.252476
   6        5.252476
   7       19.417976
   8       29.726041
   9       30.008497
 
  0.2435897E+00  0.2435897E+00  0.2435897E+00  0.6250000E-02
   1        0.011743
   2        4.086200
   3        4.496678
   4        4.496678
   5        5.224093
   6        5.224093
   7       20.038774
   8       29.823026
   9       30.101910
 
  0.2307692E+00  0.2307692E+00  0.2307692E+00  0.6250000E-02
   1       -0.178502
   2        4.090666
   3        4.500954
   4        4.500954
   5        5.198852
   6        5.198852
   7       20.667896
   8       29.930042
   9       30.201989
 
  0.2179487E+00  0.2179487E+00  0.2179487E+00  0.6250000E-02
   1       -0.362899
   2        4.099680
   3        4.502341
   4        4.502341
   5        5.176872
   6        5.176872
   7       21.304754
   8       30.014789
   9       30.308729
 
  0.2051282E+00  0.2051282E+00  0.2051282E+00  0.6250000E-02
   1       -0.540374
   2        4.112745
   3        4.500692
   4        4.500692
   5        5.158800
   6        5.158800
   7       21.948835
   8       30.103997
   9       30.422138
 
  0.1923077E+00  0.1923077E+00  0.1923077E+00  0.6250000E-02
   1       -0.710013
   2        4.128652
   3        4.495980
   4        4.495980
   5        5.144572
   6        5.144572
   7       22.599406
   8       30.177615
   9       30.542141
 
  0.1794872E+00  0.1794872E+00  0.1794872E+00  0.6250000E-02
   1       -0.871066
   2        4.146612
   3        4.488375
   4        4.488375
   5        5.134115
   6        5.134115
   7       23.255627
   8       30.251268
   9       30.668650
 
  0.1666667E+00  0.1666667E+00  0.1666667E+00  0.6250000E-02
   1       -1.022918
   2        4.166232
   3        4.478213
   4        4.478213
   5        5.127203
   6        5.127203
   7       23.916522
   8       30.321142
   9       30.801445
 
  0.1538462E+00  0.1538462E+00  0.1538462E+00  0.6250000E-02
   1       -1.165083
   2        4.186019
   3        4.465960
   4        4.465960
   5        5.123338
   6        5.123338
   7       24.580762
   8       30.381573
   9       30.940285
 
  0.1410256E+00  0.1410256E+00  0.1410256E+00  0.6250000E-02
   1       -1.297115
   2        4.206266
   3        4.452200
   4        4.452200
   5        5.122119
   6        5.122119
   7       25.246649
   8       30.442250
   9       31.084767
 
  0.1282051E+00  0.1282051E+00  0.1282051E+00  0.6250000E-02
   1       -1.418638
   2        4.226258
   3        4.437517
   4        4.437517
   5        5.122987
   6        5.122987
   7       25.911565
   8       30.495490
   9       31.234320
 
  0.1153846E+00  0.1153846E+00  0.1153846E+00  0.6250000E-02
   1       -1.529347
   2        4.245572
   3        4.422494
   4        4.422494
   5        5.125393
   6        5.125393
   7       26.571629
   8       30.551456
   9       31.388130
 
  0.1025641E+00  0.1025641E+00  0.1025641E+00  0.6250000E-02
   1       -1.629003
   2        4.263905
   3        4.407762
   4        4.407762
   5        5.129062
   6        5.129062
   7       27.220635
   8       30.614464
   9       31.545040
 
  0.8974359E-01  0.8974359E-01  0.8974359E-01  0.6250000E-02
   1       -1.717400
   2        4.280771
   3        4.393620
   4        4.393620
   5        5.133091
   6        5.133091
   7       27.848053
   8       30.692851
   9       31.703439
 
  0.7692308E-01  0.7692308E-01  0.7692308E-01  0.6250000E-02
   1       -1.794334
   2        4.295967
   3        4.380583
   4        4.380583
   5        5.137316
   6        5.137316
   7       28.435534
   8       30.802905
   9       31.860817
 
  0.6410256E-01  0.6410256E-01  0.6410256E-01  0.6250000E-02
   1       -1.859656
   2        4.309254
   3        4.369003
   4        4.369003
   5        5.141411
   6        5.141411
   7       28.952571
   8       30.970694
   9       32.013770
 
  0.5128205E-01  0.5128205E-01  0.5128205E-01  0.6250000E-02
   1       -1.913255
   2        4.320407
   3        4.359160
   4        4.359160
   5        5.145112
   6        5.145112
   7       29.359782
   8       31.228301
   9       32.157519
 
  0.3846154E-01  0.3846154E-01  0.3846154E-01  0.6250000E-02
   1       -1.955056
   2        4.329317
   3        4.351344
   4        4.351344
   5        5.148456
   6        5.148456
   7       29.634768
   8       31.582477
   9       32.285151
 
  0.2564103E-01  0.2564103E-01  0.2564103E-01  0.6250000E-02
   1       -1.984961
   2        4.335728
   3        4.345596
   4        4.345596
   5        5.150772
   6        5.150772
   7       29.794965
   8       31.992256
   9       32.387771
 
  0.1282051E-01  0.1282051E-01  0.1282051E-01  0.6250000E-02
   1       -2.002914
   2        4.339622
   3        4.342100
   4        4.342100
   5        5.152208
   6        5.152208
   7       29.875095
   8       32.336216
   9       32.455489
 
  0.0000000E+00  0.0000000E+00  0.0000000E+00  0.6250000E-02
   1       -2.008890
   2        4.340928
   3        4.340928
   4        4.340928
   5        5.152694
   6        5.152694
   7       29.899227
   8       32.478946
   9       32.478964
 
  0.0000000E+00  0.0000000E+00  0.0000000E+00  0.6250000E-02
   1       -2.008890
   2        4.340928
   3        4.340928
   4        4.340928
   5        5.152694
   6        5.152694
   7       29.899227
   8       32.478935
   9       32.480957
 
  0.0000000E+00  0.1282051E-01  0.1282051E-01  0.6250000E-02
   1       -2.000920
   2        4.338539
   3        4.342817
   4        4.342817
   5        5.150526
   6        5.153562
   7       29.868197
   8       32.365665
   9       32.438225
 
  0.0000000E+00  0.2564103E-01  0.2564103E-01  0.6250000E-02
   1       -1.976980
   2        4.331392
   3        4.348485
   4        4.348485
   5        5.144054
   6        5.156164
   7       29.778496
   8       32.073774
   9       32.168419
 
  0.0000000E+00  0.3846154E-01  0.3846154E-01  0.6250000E-02
   1       -1.937117
   2        4.319541
   3        4.357847
   4        4.357847
   5        5.133005
   6        5.160477
   7       29.639071
   8       31.682184
   9       31.757400
 
  0.0000000E+00  0.5128205E-01  0.5128205E-01  0.6250000E-02
   1       -1.881424
   2        4.303089
   3        4.371030
   4        4.371031
   5        5.118152
   6        5.166482
   7       29.462062
   8       31.241359
   9       31.303279
 
  0.0000000E+00  0.6410256E-01  0.6410256E-01  0.6250000E-02
   1       -1.810030
   2        4.282152
   3        4.387934
   4        4.387934
   5        5.099333
   6        5.174142
   7       29.256523
   8       30.776885
   9       30.814467
 
  0.0000000E+00  0.7692308E-01  0.7692308E-01  0.6250000E-02
   1       -1.723055
   2        4.256883
   3        4.408514
   4        4.408514
   5        5.076776
   6        5.183409
   7       29.034210
   8       30.301657
   9       30.302167
 
  0.0000000E+00  0.8974359E-01  0.8974359E-01  0.6250000E-02
   1       -1.620690
   2        4.227472
   3        4.432725
   4        4.432725
   5        5.050752
   6        5.194229
   7       28.801784
   8       29.822694
   9       29.823278
 
  0.0000000E+00  0.1025641E+00  0.1025641E+00  0.6250000E-02
   1       -1.503209
   2        4.194139
   3        4.460506
   4        4.460506
   5        5.021585
   6        5.206534
   7       28.565020
   8       29.344122
   9       29.344406
 
  0.0000000E+00  0.1153846E+00  0.1153846E+00  0.6250000E-02
   1       -1.370889
   2        4.157132
   3        4.491729
   4        4.491729
   5        4.989611
   6        5.219955
   7       28.328034
   8       28.868591
   9       28.868608
 
  0.0000000E+00  0.1282051E+00  0.1282051E+00  0.6250000E-02
   1       -1.224072
   2        4.116727
   3        4.526434
   4        4.526434
   5        4.955468
   6        5.234989
   7       28.093843
   8       28.397923
   9       28.397946
 
  0.0000000E+00  0.1410256E+00  0.1410256E+00  0.6250000E-02
   1       -1.063198
   2        4.073219
   3        4.564455
   4        4.564455
   5        4.919758
   6        5.251255
   7       27.864618
   8       27.933450
   9       27.933514
 
  0.0000000E+00  0.1538462E+00  0.1538462E+00  0.6250000E-02
   1       -0.888847
   2        4.026920
   3        4.605677
   4        4.605677
   5        4.882959
   6        5.268655
   7       27.476225
   8       27.476800
   9       27.642255
 
  0.0000000E+00  0.1666667E+00  0.1666667E+00  0.6250000E-02
   1       -0.701627
   2        3.978158
   3        4.649967
   4        4.649967
   5        4.846001
   6        5.287083
   7       27.027142
   8       27.027148
   9       27.427004
 
  0.0000000E+00  0.1794872E+00  0.1794872E+00  0.6250000E-02
   1       -0.502340
   2        3.927277
   3        4.697169
   4        4.697169
   5        4.809866
   6        5.306421
   7       26.586970
   8       26.586977
   9       27.219885
 
  0.0000000E+00  0.1923077E+00  0.1923077E+00  0.6250000E-02
   1       -0.292002
   2        3.874741
   3        4.747471
   4        4.747471
   5        4.775779
   6        5.326621
   7       26.156413
   8       26.156418
   9       27.021904
 
  0.0000000E+00  0.2051282E+00  0.2051282E+00  0.6250000E-02
   1       -0.071856
   2        3.820621
   3        4.745326
   4        4.800036
   5        4.800037
   6        5.347437
   7       25.736098
   8       25.736110
   9       26.833737
 
  0.0000000E+00  0.2179487E+00  0.2179487E+00  0.6250000E-02
   1        0.156540
   2        3.765522
   3        4.719489
   4        4.854689
   5        4.854689
   6        5.368748
   7       25.326626
   8       25.326632
   9       26.654638
 
  0.0000000E+00  0.2307692E+00  0.2307692E+00  0.6250000E-02
   1        0.391228
   2        3.709781
   3        4.701202
   4        4.911527
   5        4.911527
   6        5.390454
   7       24.928635
   8       24.928641
   9       26.491053
 
  0.0000000E+00  0.2435897E+00  0.2435897E+00  0.6250000E-02
   1        0.629674
   2        3.653750
   3        4.692859
   4        4.970166
   5        4.970167
   6        5.412420
   7       24.542720
   8       24.542726
   9       25.992578
 
  0.0000000E+00  0.2564103E+00  0.2564103E+00  0.6250000E-02
   1        0.868773
   2        3.597800
   3        4.697713
   4        5.030305
   5        5.030306
   6        5.434506
   7       24.169480
   8       24.169486
   9       25.264227
 
  0.0000000E+00  0.2692308E+00  0.2692308E+00  0.6250000E-02
   1        1.104667
   2        3.542292
   3        4.719717
   4        5.091604
   5        5.091604
   6        5.456565
   7       23.809522
   8       23.809527
   9       24.557759
 
  0.0000000E+00  0.2820513E+00  0.2820513E+00  0.6250000E-02
   1        1.332708
   2        3.487577
   3        4.763534
   4        5.153690
   5        5.153691
   6        5.478450
   7       23.463483
   8       23.463488
   9       23.826876
 
  0.0000000E+00  0.2948718E+00  0.2948718E+00  0.6250000E-02
   1        1.547597
   2        3.433996
   3        4.834375
   4        5.216170
   5        5.216170
   6        5.500020
   7       23.098056
   8       23.132010
   9       23.132023
 
  0.0000000E+00  0.3076923E+00  0.3076923E+00  0.6250000E-02
   1        1.743957
   2        3.381880
   3        4.937514
   4        5.278615
   5        5.278615
   6        5.521132
   7       22.370119
   8       22.815758
   9       22.815776
 
  0.0000000E+00  0.3205128E+00  0.3205128E+00  0.6250000E-02
   1        1.916973
   2        3.331594
   3        5.077497
   4        5.340884
   5        5.340885
   6        5.541910
   7       21.647146
   8       22.515387
   9       22.515392
 
  0.0000000E+00  0.3333333E+00  0.3333333E+00  0.6250000E-02
   1        2.063349
   2        3.283353
   3        5.257147
   4        5.401863
   5        5.401863
   6        5.561681
   7       20.932403
   8       22.231583
   9       22.231587
 
  0.0000000E+00  0.3461538E+00  0.3461538E+00  0.6250000E-02
   1        2.182083
   2        3.237721
   3        5.461449
   4        5.461450
   5        5.476815
   6        5.580583
   7       20.228684
   8       21.965051
   9       21.965058
 
  0.0000000E+00  0.3589744E+00  0.3589744E+00  0.6250000E-02
   1        2.274491
   2        3.194495
   3        5.518931
   4        5.518931
   5        5.598490
   6        5.734192
   7       19.538570
   8       21.716454
   9       21.716461
 
  0.0000000E+00  0.3717949E+00  0.3717949E+00  0.6250000E-02
   1        2.343558
   2        3.153713
   3        5.573687
   4        5.573687
   5        5.615162
   6        6.024833
   7       18.864790
   8       21.486497
   9       21.486508
 
  0.0000000E+00  0.3846154E+00  0.3846154E+00  0.6250000E-02
   1        2.393358
   2        3.116503
   3        5.625523
   4        5.625523
   5        5.630719
   6        6.342866
   7       18.210357
   8       21.275879
   9       21.275884
 
  0.0000000E+00  0.3974359E+00  0.3974359E+00  0.6250000E-02
   1        2.427896
   2        3.082633
   3        5.644942
   4        5.673719
   5        5.673719
   6        6.681446
   7       17.578869
   8       21.085273
   9       21.085278
 
  0.0000000E+00  0.4102564E+00  0.4102564E+00  0.6250000E-02
   1        2.450944
   2        3.052293
   3        5.657802
   4        5.717913
   5        5.717914
   6        7.032974
   7       16.974950
   8       20.915324
   9       20.915329
 
  0.0000000E+00  0.4230769E+00  0.4230769E+00  0.6250000E-02
   1        2.465498
   2        3.025652
   3        5.669078
   4        5.757250
   5        5.757250
   6        7.388752
   7       16.404743
   8       20.766639
   9       20.766645
 
  0.0000000E+00  0.4358974E+00  0.4358974E+00  0.6250000E-02
   1        2.474132
   2        3.002857
   3        5.678754
   4        5.791429
   5        5.791429
   6        7.738303
   7       15.876671
   8       20.639783
   9       20.639788
 
  0.0000000E+00  0.4487179E+00  0.4487179E+00  0.6250000E-02
   1        2.478835
   2        2.984035
   3        5.686762
   4        5.820030
   5        5.820030
   6        8.068427
   7       15.402335
   8       20.535256
   9       20.535262
 
  0.0000000E+00  0.4615385E+00  0.4615385E+00  0.6250000E-02
   1        2.480745
   2        2.969288
   3        5.693047
   4        5.842649
   5        5.842649
   6        8.362048
   7       14.997554
   8       20.453486
   9       20.453492
 
  0.0000000E+00  0.4743590E+00  0.4743590E+00  0.6250000E-02
   1        2.481624
   2        2.958697
   3        5.697565
   4        5.859048
   5        5.859048
   6        8.598157
   7       14.682686
   8       20.394824
   9       20.394829
 
  0.0000000E+00  0.4871795E+00  0.4871795E+00  0.6250000E-02
   1        2.481865
   2        2.952319
   3        5.700285
   4        5.868972
   5        5.868972
   6        8.753278
   7       14.480522
   8       20.359523
   9       20.359530
 
  0.0000000E+00  0.5000000E+00  0.5000000E+00  0.6250000E-02
   1        2.481897
   2        2.950189
   3        5.701197
   4        5.872298
   5        5.872298
   6        8.807636
   7       14.410507
   8       20.347738
   9       20.347743
 
  0.0000000E+00  0.5000000E+00  0.5000000E+00  0.6250000E-02
   1        2.481897
   2        2.950189
   3        5.701197
   4        5.872298
   5        5.872298
   6        8.807636
   7       14.410507
   8       20.347739
   9       20.347748
 
  0.6410256E-02  0.5032051E+00  0.5032051E+00  0.6250000E-02
   1        2.482368
   2        2.950467
   3        5.700846
   4        5.870509
   5        5.872166
   6        8.810449
   7       14.410865
   8       20.334209
   9       20.349188
 
  0.1282051E-01  0.5064103E+00  0.5064103E+00  0.6250000E-02
   1        2.483780
   2        2.951303
   3        5.699796
   4        5.865163
   5        5.871771
   6        8.818865
   7       14.411939
   8       20.294064
   9       20.353526
 
  0.1923077E-01  0.5096154E+00  0.5096154E+00  0.6250000E-02
   1        2.486132
   2        2.952694
   3        5.698054
   4        5.856327
   5        5.871115
   6        8.832821
   7       14.413731
   8       20.228588
   9       20.360722
 
  0.2564103E-01  0.5128205E+00  0.5128205E+00  0.6250000E-02
   1        2.489419
   2        2.954639
   3        5.695617
   4        5.844104
   5        5.870196
   6        8.852214
   7       14.416241
   8       20.139729
   9       20.370814
 
  0.3205128E-01  0.5160256E+00  0.5160256E+00  0.6250000E-02
   1        2.493636
   2        2.957135
   3        5.692493
   4        5.828629
   5        5.869013
   6        8.876905
   7       14.419473
   8       20.029827
   9       20.383772
 
  0.3846154E-01  0.5192308E+00  0.5192308E+00  0.6250000E-02
   1        2.498776
   2        2.960179
   3        5.688686
   4        5.810069
   5        5.867568
   6        8.906729
   7       14.423429
   8       19.901395
   9       20.399599
 
  0.4487179E-01  0.5224359E+00  0.5224359E+00  0.6250000E-02
   1        2.504831
   2        2.963768
   3        5.684204
   4        5.788615
   5        5.865861
   6        8.941494
   7       14.428111
   8       19.756916
   9       20.418285
 
  0.5128205E-01  0.5256410E+00  0.5256410E+00  0.6250000E-02
   1        2.511789
   2        2.967897
   3        5.679057
   4        5.764472
   5        5.863891
   6        8.980994
   7       14.433525
   8       19.598733
   9       20.439820
 
  0.5769231E-01  0.5288462E+00  0.5288462E+00  0.6250000E-02
   1        2.519641
   2        2.972563
   3        5.673256
   4        5.737857
   5        5.861659
   6        9.025012
   7       14.439674
   8       19.428956
   9       20.464191
 
  0.6410256E-01  0.5320513E+00  0.5320513E+00  0.6250000E-02
   1        2.528374
   2        2.977760
   3        5.666812
   4        5.708992
   5        5.859165
   6        9.073327
   7       14.446563
   8       19.249445
   9       20.491390
 
  0.7051282E-01  0.5352564E+00  0.5352564E+00  0.6250000E-02
   1        2.537972
   2        2.983482
   3        5.659737
   4        5.678098
   5        5.856410
   6        9.125717
   7       14.454196
   8       19.061818
   9       20.521401
 
  0.7692308E-01  0.5384615E+00  0.5384615E+00  0.6250000E-02
   1        2.548466
   2        2.989953
   3        5.645503
   4        5.652104
   5        5.853401
   6        9.181971
   7       14.462581
   8       18.867494
   9       20.554204
 
  0.8333333E-01  0.5416667E+00  0.5416667E+00  0.6250000E-02
   1        2.559746
   2        2.996700
   3        5.611191
   4        5.643811
   5        5.850124
   6        9.241869
   7       14.471710
   8       18.667579
   9       20.589789
 
  0.8974359E-01  0.5448718E+00  0.5448718E+00  0.6250000E-02
   1        2.571840
   2        3.003947
   3        5.575477
   4        5.634934
   5        5.846589
   6        9.305214
   7       14.481590
   8       18.463126
   9       20.628137
 
  0.9615385E-01  0.5480769E+00  0.5480769E+00  0.6250000E-02
   1        2.584729
   2        3.011684
   3        5.538550
   4        5.625489
   5        5.842794
   6        9.371818
   7       14.492220
   8       18.254995
   9       20.669230
 
  0.1025641E+00  0.5512821E+00  0.5512821E+00  0.6250000E-02
   1        2.598392
   2        3.019902
   3        5.500592
   4        5.615500
   5        5.838743
   6        9.441502
   7       14.503596
   8       18.043924
   9       20.713049
 
  0.1089744E+00  0.5544872E+00  0.5544872E+00  0.6250000E-02
   1        2.612805
   2        3.028587
   3        5.461763
   4        5.604981
   5        5.834435
   6        9.514101
   7       14.515709
   8       17.830546
   9       20.759572
 
  0.1153846E+00  0.5576923E+00  0.5576923E+00  0.6250000E-02
   1        2.627859
   2        3.037471
   3        5.422084
   4        5.593729
   5        5.829864
   6        9.589445
   7       14.528533
   8       17.615413
   9       20.808779
 
  0.1217949E+00  0.5608974E+00  0.5608974E+00  0.6250000E-02
   1        2.643704
   2        3.047049
   3        5.381963
   4        5.582211
   5        5.825044
   6        9.667423
   7       14.542062
   8       17.399024
   9       20.860647
 
  0.1282051E+00  0.5641026E+00  0.5641026E+00  0.6250000E-02
   1        2.660227
   2        3.057057
   3        5.341397
   4        5.570226
   5        5.819970
   6        9.747890
   7       14.556246
   8       17.181819
   9       20.915156
 
  0.1346154E+00  0.5673077E+00  0.5673077E+00  0.6250000E-02
   1        2.677400
   2        3.067479
   3        5.300504
   4        5.557795
   5        5.814641
   6        9.830727
   7       14.571019
   8       16.964215
   9       20.972277
 
  0.1410256E+00  0.5705128E+00  0.5705128E+00  0.6250000E-02
   1        2.695196
   2        3.078296
   3        5.259393
   4        5.544942
   5        5.809060
   6        9.915824
   7       14.586279
   8       16.746624
   9       21.031997
 
  0.1474359E+00  0.5737179E+00  0.5737179E+00  0.6250000E-02
   1        2.713586
   2        3.089490
   3        5.218165
   4        5.531690
   5        5.803226
   6       10.003083
   7       14.601864
   8       16.529476
   9       21.094270
 
  0.1538462E+00  0.5769231E+00  0.5769231E+00  0.6250000E-02
   1        2.732540
   2        3.101041
   3        5.176909
   4        5.518061
   5        5.797141
   6       10.092411
   7       14.617511
   8       16.313291
   9       21.159090
 
  0.1602564E+00  0.5801282E+00  0.5801282E+00  0.6250000E-02
   1        2.752027
   2        3.112927
   3        5.135706
   4        5.504080
   5        5.790806
   6       10.183726
   7       14.632776
   8       16.098735
   9       21.226423
 
  0.1666667E+00  0.5833333E+00  0.5833333E+00  0.6250000E-02
   1        2.772017
   2        3.125127
   3        5.094632
   4        5.489771
   5        5.784223
   6       10.276953
   7       14.646875
   8       15.886793
   9       21.296246
 
  0.1730769E+00  0.5865385E+00  0.5865385E+00  0.6250000E-02
   1        2.792477
   2        3.137615
   3        5.053755
   4        5.475159
   5        5.777392
   6       10.372021
   7       14.658321
   8       15.679134
   9       21.368530
 
  0.1794872E+00  0.5897436E+00  0.5897436E+00  0.6250000E-02
   1        2.813459
   2        3.150371
   3        5.013151
   4        5.460587
   5        5.770330
   6       10.468866
   7       14.664087
   8       15.478972
   9       21.443250
 
  0.1858974E+00  0.5929487E+00  0.5929487E+00  0.6250000E-02
   1        2.834758
   2        3.163358
   3        4.972845
   4        5.445436
   5        5.763008
   6       10.567431
   7       14.657424
   8       15.293175
   9       21.520377
 
  0.1923077E+00  0.5961538E+00  0.5961538E+00  0.6250000E-02
   1        2.856427
   2        3.176553
   3        4.932906
   4        5.430055
   5        5.755444
   6       10.667665
   7       14.623660
   8       15.136579
   9       21.599885
 
  0.1987179E+00  0.5993590E+00  0.5993590E+00  0.6250000E-02
   1        2.878431
   2        3.189929
   3        4.893380
   4        5.414469
   5        5.747639
   6       10.769521
   7       14.540491
   8       15.031623
   9       21.681747
 
  0.2051282E+00  0.6025641E+00  0.6025641E+00  0.6250000E-02
   1        2.900735
   2        3.203450
   3        4.854312
   4        5.398704
   5        5.739595
   6       10.872955
   7       14.402110
   8       14.984244
   9       21.765934
 
  0.2115385E+00  0.6057692E+00  0.6057692E+00  0.6250000E-02
   1        2.923302
   2        3.217083
   3        4.815738
   4        5.382785
   5        5.731314
   6       10.977927
   7       14.228603
   8       14.974468
   9       21.852421
 
  0.2179487E+00  0.6089744E+00  0.6089744E+00  0.6250000E-02
   1        2.946094
   2        3.230796
   3        4.777696
   4        5.366743
   5        5.722801
   6       11.084402
   7       14.038540
   8       14.983854
   9       21.941180
 
  0.2243590E+00  0.6121795E+00  0.6121795E+00  0.6250000E-02
   1        2.969072
   2        3.244553
   3        4.740217
   4        5.350595
   5        5.714055
   6       11.192345
   7       13.841095
   8       15.003341
   9       22.032188
 
  0.2307692E+00  0.6153846E+00  0.6153846E+00  0.6250000E-02
   1        2.992195
   2        3.258321
   3        4.703327
   4        5.334365
   5        5.705077
   6       11.301725
   7       13.640420
   8       15.028891
   9       22.125405
 
  0.2371795E+00  0.6185897E+00  0.6185897E+00  0.6250000E-02
   1        3.015418
   2        3.272063
   3        4.667054
   4        5.318076
   5        5.695870
   6       11.412515
   7       13.438529
   8       15.058595
   9       22.220807
 
  0.2435897E+00  0.6217949E+00  0.6217949E+00  0.6250000E-02