       N       E                     dE             d eps       ncg     rms          rms(c)
DAV:   1     0.318960866010E+02    0.31896E+02   -0.53473E+03  2922   0.192E+03
DAV:   2    -0.630544197630E+01   -0.38202E+02   -0.36219E+02  2920   0.190E+02
DAV:   3    -0.670168701162E+01   -0.39625E+00   -0.39411E+00  3692   0.270E+01
DAV:   4    -0.670416131708E+01   -0.24743E-02   -0.24741E-02  3849   0.187E+00
DAV:   5    -0.670418388300E+01   -0.22566E-04   -0.22565E-04  3675   0.128E-01
DAV:   6    -0.670418437069E+01   -0.48768E-06   -0.48740E-06  3674   0.175E-02
   1 F= -.67041844E+01 E0= -.67057422E+01  d E =0.467360E-02
