PROCAR lm decomposed
# of k-points:  160         # of bands:   9         # of ions:   1

 k-point    1 :    0.50000000 0.50000000 0.50000000     weight = 0.00625000

band   1 # energy    2.28388820 # occ.  2.00000000
 
ion      s     py     pz     px    dxy    dyz    dz2    dxz    dx2    tot
  1  0.147  0.000  0.000  0.000  0.228  0.228  0.000  0.228  0.000  0.830
 
band   2 # energy    4.30211254 # occ.  2.00000000
 
ion      s     py     pz     px    dxy    dyz    dz2    dxz    dx2    tot
  1  0.000  0.000  0.000  0.000  0.242  0.113  0.538  0.032  0.036  0.959
 
band   3 # energy    4.30211254 # occ.  2.00000000
 
ion      s     py     pz     px    dxy    dyz    dz2    dxz    dx2    tot
  1  0.000  0.000  0.000  0.000  0.016  0.145  0.036  0.226  0.538  0.959
 
band   4 # energy    5.72534168 # occ.  2.05540526
 
ion      s     py     pz     px    dxy    dyz    dz2    dxz    dx2    tot
  1  0.000  0.000  0.000  0.000  0.379  0.122  0.380  0.095  0.018  0.995
 
band   5 # energy    5.72534168 # occ.  2.05540526
 
ion      s     py     pz     px    dxy    dyz    dz2    dxz    dx2    tot
  1  0.000  0.000  0.000  0.000  0.018  0.276  0.018  0.302  0.380  0.995
 
band   6 # energy    6.32159170 # occ. -0.01848137
 
ion      s     py     pz     px    dxy    dyz    dz2    dxz    dx2    tot
  1  0.000  0.178  0.178  0.178  0.000  0.000  0.000  0.000  0.000  0.534
 
band   7 # energy   11.06667905 # occ.  0.00000000
 
ion      s     py     pz     px    dxy    dyz    dz2    dxz    dx2    tot
  1  0.428  0.000  0.000  0.000  0.130  0.130  0.000  0.130  0.000  0.816
 
band   8 # energy   28.39350007 # occ.  0.00000000
 
ion      s     py     pz     px    dxy    dyz    dz2    dxz    dx2    tot
  1  0.000  0.009  0.009  0.009  0.000  0.000  0.000  0.000  0.000  0.026
 
band   9 # energy   29.29727179 # occ.  0.00000000
 
ion      s     py     pz     px    dxy    dyz    dz2    dxz    dx2    tot
  1  0.000  0.019  0.239  0.387  0.000  0.000  0.000  0.000  0.000  0.646
 

 k-point    2 :    0.48717949 0.48717949 0.48717949     weight = 0.00625000

band   1 # energy    2.28044453 # occ.  2.00000000
 
ion      s     py     pz     px    dxy    dyz    dz2    dxz    dx2    tot
  1  0.148  0.000  0.000  0.000  0.227  0.227  0.000  0.227  0.000  0.829
 
band   2 # energy    4.30290853 # occ.  2.00000000
 
ion      s     py     pz     px    dxy    dyz    dz2    dxz    dx2    tot
  1  0.000  0.000  0.000  0.000  0.129  0.195  0.286  0.063  0.286  0.959
 
band   3 # energy    4.30290853 # occ.  2.00000000
 
ion      s     py     pz     px    dxy    dyz    dz2    dxz    dx2    tot
  1  0.000  0.000  0.000  0.000  0.129  0.062  0.286  0.195  0.286  0.959
 
band   4 # energy    5.72347788 # occ.  2.05698628
 
ion      s     py     pz     px    dxy    dyz    dz2    dxz    dx2    tot
  1  0.000  0.000  0.000  0.000  0.003  0.281  0.003  0.311  0.395  0.995
 
band   5 # energy    5.72347788 # occ.  2.05698628
 
ion      s     py     pz     px    dxy    dyz    dz2    dxz    dx2    tot
  1  0.000  0.000  0.000  0.000  0.394  0.116  0.395  0.086  0.003  0.995
 
band   6 # energy    6.28913316 # occ. -0.02948132
 
ion      s     py     pz     px    dxy    dyz    dz2    dxz    dx2    tot
  1  0.004  0.175  0.175  0.175  0.003  0.003  0.000  0.003  0.000  0.538
 
band   7 # energy   11.11404505 # occ.  0.00000000
 
ion      s     py     pz     px    dxy    dyz    dz2    dxz    dx2    tot
  1  0.423  0.002  0.002  0.002  0.128  0.128  0.000  0.128  0.000  0.813
 
band   8 # energy   28.39813030 # occ.  0.00000000
 
ion      s     py     pz     px    dxy    dyz    dz2    dxz    dx2    tot
  1  0.000  0.009  0.009  0.008  0.000  0.000  0.000  0.000  0.000  0.026
 
band   9 # energy   29.29855502 # occ.  0.00000000
 
ion      s     py     pz     px    dxy    dyz    dz2    dxz    dx2    tot
  1  0.000  0.155  0.423  0.066  0.001  0.000  0.000  0.000  0.000  0.646
 

 k-point    3 :    0.47435897 0.47435897 0.47435897     weight = 0.00625000

band   1 # energy    2.26992257 # occ.  2.00000000
 
ion      s     py     pz     px    dxy    dyz    dz2    dxz    dx2    tot
  1  0.152  0.001  0.001  0.001  0.224  0.224  0.000  0.224  0.000  0.826
 
band   2 # energy    4.30529000 # occ.  2.00000000
 
ion      s     py     pz     px    dxy    dyz    dz2    dxz    dx2    tot
  1  0.000  0.000  0.000  0.000  0.215  0.108  0.475  0.065  0.096  0.959
 
band   3 # energy    4.30529000 # occ.  2.00000000
 
ion      s     py     pz     px    dxy    dyz    dz2    dxz    dx2    tot
  1  0.000  0.000  0.000  0.000  0.044  0.151  0.096  0.194  0.475  0.959
 
band   4 # energy    5.71791254 # occ.  2.06112757
 
ion      s     py     pz     px    dxy    dyz    dz2    dxz    dx2    tot
  1  0.000  0.000  0.000  0.000  0.102  0.247  0.103  0.245  0.297  0.995
 
band   5 # energy    5.71791254 # occ.  2.06112757
 
ion      s     py     pz     px    dxy    dyz    dz2    dxz    dx2    tot
  1  0.000  0.000  0.000  0.000  0.294  0.149  0.297  0.151  0.103  0.995
 
band   6 # energy    6.19595802 # occ. -0.06816612
 
ion      s     py     pz     px    dxy    dyz    dz2    dxz    dx2    tot
  1  0.015  0.169  0.169  0.169  0.010  0.010  0.000  0.010  0.000  0.550
 
band   7 # energy   11.25209523 # occ.  0.00000000
 
ion      s     py     pz     px    dxy    dyz    dz2    dxz    dx2    tot
  1  0.409  0.008  0.008  0.008  0.124  0.124  0.000  0.124  0.000  0.804
 
band   8 # energy   28.41200808 # occ.  0.00000000
 
ion      s     py     pz     px    dxy    dyz    dz2    dxz    dx2    tot
  1  0.000  0.008  0.009  0.009  0.000  0.000  0.000  0.000  0.000  0.027
 
band   9 # energy   29.30232287 # occ.  0.00000000
 
ion      s     py     pz     px    dxy    dyz    dz2    dxz    dx2    tot
  1  0.000  0.101  0.140  0.400  0.001  0.004  0.000  0.001  0.001  0.648
 

 k-point    4 :    0.46153846 0.46153846 0.46153846     weight = 0.00625000

band   1 # energy    2.25177873 # occ.  2.00000000
 
ion      s     py     pz     px    dxy    dyz    dz2    dxz    dx2    tot
  1  0.157  0.002  0.002  0.002  0.219  0.219  0.000  0.219  0.000  0.821
 
band   2 # energy    4.30923198 # occ.  2.00000000
 
ion      s     py     pz     px    dxy    dyz    dz2    dxz    dx2    tot
  1  0.000  0.000  0.000  0.000  0.099  0.250  0.217  0.041  0.352  0.960
 
band   3 # energy    4.30923198 # occ.  2.00000000
 
ion      s     py     pz     px    dxy    dyz    dz2    dxz    dx2    tot
  1  0.000  0.000  0.000  0.000  0.161  0.010  0.352  0.219  0.217  0.960
 
band   4 # energy    5.70870866 # occ.  2.06620745
 
ion      s     py     pz     px    dxy    dyz    dz2    dxz    dx2    tot
  1  0.000  0.000  0.000  0.000  0.322  0.149  0.329  0.121  0.074  0.995
 
band   5 # energy    5.70870866 # occ.  2.06620745
 
ion      s     py     pz     px    dxy    dyz    dz2    dxz    dx2    tot
  1  0.000  0.000  0.000  0.000  0.072  0.246  0.074  0.274  0.329  0.995
 
band   6 # energy    6.05303998 # occ.  0.14974686
 
ion      s     py     pz     px    dxy    dyz    dz2    dxz    dx2    tot
  1  0.029  0.159  0.159  0.159  0.021  0.021  0.000  0.021  0.000  0.567
 
band   7 # energy   11.47040279 # occ.  0.00000000
 
ion      s     py     pz     px    dxy    dyz    dz2    dxz    dx2    tot
  1  0.389  0.016  0.016  0.016  0.118  0.118  0.000  0.118  0.000  0.791
 
band   8 # energy   28.43505184 # occ.  0.00000000
 
ion      s     py     pz     px    dxy    dyz    dz2    dxz    dx2    tot
  1  0.001  0.009  0.008  0.009  0.001  0.001  0.000  0.001  0.000  0.028
 
band   9 # energy   29.30875366 # occ.  0.00000000
 
ion      s     py     pz     px    dxy    dyz    dz2    dxz    dx2    tot
  1  0.000  0.254  0.041  0.337  0.001  0.007  0.000  0.005  0.003  0.648
 

 k-point    5 :    0.44871795 0.44871795 0.44871795     weight = 0.00625000

band   1 # energy    2.22512869 # occ.  2.00000000
 
ion      s     py     pz     px    dxy    dyz    dz2    dxz    dx2    tot
  1  0.165  0.003  0.003  0.003  0.212  0.212  0.000  0.212  0.000  0.813
 
band   2 # energy    4.31487562 # occ.  2.00000000
 
ion      s     py     pz     px    dxy    dyz    dz2    dxz    dx2    tot
  1  0.000  0.000  0.000  0.000  0.015  0.175  0.032  0.204  0.534  0.960
 
band   3 # energy    4.31487562 # occ.  2.00000000
 
ion      s     py     pz     px    dxy    dyz    dz2    dxz    dx2    tot
  1  0.000  0.000  0.000  0.000  0.248  0.087  0.534  0.059  0.032  0.960
 
band   4 # energy    5.69611305 # occ.  2.07003423
 
ion      s     py     pz     px    dxy    dyz    dz2    dxz    dx2    tot
  1  0.000  0.000  0.000  0.000  0.125  0.104  0.130  0.359  0.276  0.994
 
band   5 # energy    5.69611305 # occ.  2.07003423
 
ion      s     py     pz     px    dxy    dyz    dz2    dxz    dx2    tot
  1  0.000  0.000  0.000  0.000  0.267  0.288  0.276  0.033  0.130  0.994
 
band   6 # energy    5.87435332 # occ.  1.45674341
 
ion      s     py     pz     px    dxy    dyz    dz2    dxz    dx2    tot
  1  0.044  0.147  0.147  0.147  0.035  0.035  0.000  0.035  0.000  0.589
 
band   7 # energy   11.75585274 # occ.  0.00000000
 
ion      s     py     pz     px    dxy    dyz    dz2    dxz    dx2    tot
  1  0.366  0.026  0.026  0.026  0.111  0.111  0.000  0.111  0.000  0.777
 
band   8 # energy   28.46708420 # occ.  0.00000000
 
ion      s     py     pz     px    dxy    dyz    dz2    dxz    dx2    tot
  1  0.001  0.008  0.008  0.007  0.001  0.001  0.000  0.001  0.000  0.029
 
band   9 # energy   29.31805320 # occ.  0.00000000
 
ion      s     py     pz     px    dxy    dyz    dz2    dxz    dx2    tot
  1  0.000  0.310  0.306  0.009  0.010  0.000  0.003  0.010  0.001  0.651
 

 k-point    6 :    0.43589744 0.43589744 0.43589744     weight = 0.00625000

band   1 # energy    2.18868838 # occ.  2.00000000
 
ion      s     py     pz     px    dxy    dyz    dz2    dxz    dx2    tot
  1  0.176  0.005  0.005  0.005  0.204  0.204  0.000  0.204  0.000  0.803
 
band   2 # energy    4.32194229 # occ.  2.00000000
 
ion      s     py     pz     px    dxy    dyz    dz2    dxz    dx2    tot
  1  0.000  0.000  0.000  0.000  0.167  0.223  0.353  0.008  0.209  0.960
 
band   3 # energy    4.32194229 # occ.  2.00000000
 
ion      s     py     pz     px    dxy    dyz    dz2    dxz    dx2    tot
  1  0.000  0.000  0.000  0.000  0.099  0.042  0.209  0.257  0.353  0.960
 
band   4 # energy    5.67377639 # occ.  2.06989327
 
ion      s     py     pz     px    dxy    dyz    dz2    dxz    dx2    tot
  1  0.057  0.135  0.135  0.135  0.051  0.051  0.000  0.051  0.000  0.612
 
band   5 # energy    5.68011150 # occ.  2.07067735
 
ion      s     py     pz     px    dxy    dyz    dz2    dxz    dx2    tot
  1  0.000  0.000  0.000  0.000  0.284  0.298  0.300  0.001  0.110  0.994
 
band   6 # energy    5.68011150 # occ.  2.07067735
 
ion      s     py     pz     px    dxy    dyz    dz2    dxz    dx2    tot
  1  0.000  0.000  0.000  0.000  0.104  0.091  0.110  0.388  0.300  0.994
 
band   7 # energy   12.09581145 # occ.  0.00000000
 
ion      s     py     pz     px    dxy    dyz    dz2    dxz    dx2    tot
  1  0.342  0.035  0.035  0.035  0.105  0.105  0.000  0.105  0.000  0.762
 
band   8 # energy   28.50779949 # occ.  0.00000000
 
ion      s     py     pz     px    dxy    dyz    dz2    dxz    dx2    tot
  1  0.002  0.008  0.008  0.007  0.002  0.002  0.000  0.002  0.000  0.031
 
band   9 # energy   29.33083584 # occ.  0.00000000
 
ion      s     py     pz     px    dxy    dyz    dz2    dxz    dx2    tot
  1  0.000  0.394  0.115  0.105  0.006  0.006  0.002  0.021  0.006  0.654
 

 k-point    7 :    0.42307692 0.42307692 0.42307692     weight = 0.00625000

band   1 # energy    2.14072165 # occ.  2.00000000
 
ion      s     py     pz     px    dxy    dyz    dz2    dxz    dx2    tot
  1  0.190  0.008  0.008  0.008  0.192  0.192  0.000  0.192  0.000  0.791
 
band   2 # energy    4.33024103 # occ.  2.00000000
 
ion      s     py     pz     px    dxy    dyz    dz2    dxz    dx2    tot
  1  0.000  0.000  0.000  0.000  0.029  0.115  0.060  0.260  0.496  0.960
 
band   3 # energy    4.33024103 # occ.  2.00000000
 
ion      s     py     pz     px    dxy    dyz    dz2    dxz    dx2    tot
  1  0.000  0.000  0.000  0.000  0.240  0.154  0.496  0.009  0.060  0.960
 
band   4 # energy    5.46343455 # occ.  2.00465965
 
ion      s     py     pz     px    dxy    dyz    dz2    dxz    dx2    tot
  1  0.067  0.122  0.122  0.122  0.069  0.069  0.000  0.069  0.000  0.638
 
band   5 # energy    5.66070524 # occ.  2.06685420
 
ion      s     py     pz     px    dxy    dyz    dz2    dxz    dx2    tot
  1  0.000  0.000  0.000  0.000  0.347  0.086  0.375  0.145  0.041  0.993
 
band   6 # energy    5.66070524 # occ.  2.06685420
 
ion      s     py     pz     px    dxy    dyz    dz2    dxz    dx2    tot
  1  0.000  0.000  0.000  0.000  0.038  0.299  0.041  0.240  0.375  0.993
 
band   7 # energy   12.47966291 # occ.  0.00000000
 
ion      s     py     pz     px    dxy    dyz    dz2    dxz    dx2    tot
  1  0.319  0.044  0.044  0.044  0.099  0.099  0.000  0.099  0.000  0.748
 
band   8 # energy   28.55717237 # occ.  0.00000000
 
ion      s     py     pz     px    dxy    dyz    dz2    dxz    dx2    tot
  1  0.003  0.007  0.007  0.008  0.003  0.003  0.000  0.003  0.000  0.033
 
band   9 # energy   29.34659743 # occ.  0.00000000
 
ion      s     py     pz     px    dxy    dyz    dz2    dxz    dx2    tot
  1  0.000  0.248  0.336  0.016  0.025  0.001  0.008  0.019  0.002  0.656
 

 k-point    8 :    0.41025641 0.41025641 0.41025641     weight = 0.00625000

band   1 # energy    2.07937113 # occ.  2.00000000
 
ion      s     py     pz     px    dxy    dyz    dz2    dxz    dx2    tot
  1  0.207  0.011  0.011  0.011  0.179  0.179  0.000  0.179  0.000  0.776
 
band   2 # energy    4.33983027 # occ.  2.00000000
 
ion      s     py     pz     px    dxy    dyz    dz2    dxz    dx2    tot
  1  0.000  0.000  0.000  0.000  0.119  0.212  0.238  0.080  0.311  0.961
 
band   3 # energy    4.33983027 # occ.  2.00000000
 
ion      s     py     pz     px    dxy    dyz    dz2    dxz    dx2    tot
  1  0.000  0.000  0.000  0.000  0.155  0.061  0.311  0.194  0.238  0.961
 
band   4 # energy    5.25337962 # occ.  2.00001827
 
ion      s     py     pz     px    dxy    dyz    dz2    dxz    dx2    tot
  1  0.072  0.109  0.109  0.109  0.088  0.088  0.000  0.088  0.000  0.665
 
band   5 # energy    5.63814652 # occ.  2.05853734
 
ion      s     py     pz     px    dxy    dyz    dz2    dxz    dx2    tot
  1  0.000  0.000  0.000  0.000  0.088  0.102  0.098  0.380  0.325  0.993
 
band   6 # energy    5.63814652 # occ.  2.05853734
 
ion      s     py     pz     px    dxy    dyz    dz2    dxz    dx2    tot
  1  0.000  0.000  0.000  0.000  0.292  0.277  0.325  0.000  0.098  0.993
 
band   7 # energy   12.89909359 # occ.  0.00000000
 
ion      s     py     pz     px    dxy    dyz    dz2    dxz    dx2    tot
  1  0.297  0.052  0.052  0.052  0.094  0.094  0.000  0.094  0.000  0.735
 
band   8 # energy   28.61526255 # occ.  0.00000000
 
ion      s     py     pz     px    dxy    dyz    dz2    dxz    dx2    tot
  1  0.004  0.007  0.006  0.008  0.004  0.003  0.000  0.004  0.000  0.036
 
band   9 # energy   29.36629745 # occ.  0.00000000
 
ion      s     py     pz     px    dxy    dyz    dz2    dxz    dx2    tot
  1  0.000  0.225  0.329  0.034  0.033  0.003  0.010  0.022  0.002  0.658
 

 k-point    9 :    0.39743590 0.39743590 0.39743590     weight = 0.00625000

band   1 # energy    2.00289151 # occ.  2.00000000
 
ion      s     py     pz     px    dxy    dyz    dz2    dxz    dx2    tot
  1  0.226  0.015  0.015  0.015  0.163  0.163  0.000  0.163  0.000  0.759
 
band   2 # energy    4.35059456 # occ.  2.00000000
 
ion      s     py     pz     px    dxy    dyz    dz2    dxz    dx2    tot
  1  0.000  0.000  0.000  0.000  0.020  0.138  0.038  0.261  0.504  0.961
 
band   3 # energy    4.35059456 # occ.  2.00000000
 
ion      s     py     pz     px    dxy    dyz    dz2    dxz    dx2    tot
  1  0.000  0.000  0.000  0.000  0.259  0.142  0.504  0.018  0.038  0.961
 
band   4 # energy    5.05171349 # occ.  2.00000001
 
ion      s     py     pz     px    dxy    dyz    dz2    dxz    dx2    tot
  1  0.074  0.097  0.097  0.097  0.110  0.110  0.000  0.110  0.000  0.693
 
band   5 # energy    5.61290099 # occ.  2.04713540
 
ion      s     py     pz     px    dxy    dyz    dz2    dxz    dx2    tot
  1  0.000  0.000  0.000  0.000  0.125  0.104  0.144  0.332  0.286  0.992
 
band   6 # energy    5.61290099 # occ.  2.04713540
 
ion      s     py     pz     px    dxy    dyz    dz2    dxz    dx2    tot
  1  0.000  0.000  0.000  0.000  0.249  0.270  0.286  0.042  0.144  0.992
 
band   7 # energy   13.34787762 # occ.  0.00000000
 
ion      s     py     pz     px    dxy    dyz    dz2    dxz    dx2    tot
  1  0.277  0.060  0.060  0.060  0.089  0.089  0.000  0.089  0.000  0.723
 
band   8 # energy   28.67992537 # occ.  0.00000000
 
ion      s     py     pz     px    dxy    dyz    dz2    dxz    dx2    tot
  1  0.005  0.006  0.006  0.006  0.005  0.005  0.000  0.005  0.000  0.038
 
band   9 # energy   29.39018849 # occ.  0.00000000
 
ion      s     py     pz     px    dxy    dyz    dz2    dxz    dx2    tot
  1  0.000  0.178  0.357  0.038  0.045  0.005  0.014  0.023  0.001  0.661
 

 k-point   10 :    0.38461538 0.38461538 0.38461538     weight = 0.00625000

band   1 # energy    1.90952513 # occ.  2.00000000
 
ion      s     py     pz     px    dxy    dyz    dz2    dxz    dx2    tot
  1  0.248  0.019  0.019  0.019  0.145  0.145  0.000  0.145  0.000  0.739
 
band   2 # energy    4.36239877 # occ.  2.00000000
 
ion      s     py     pz     px    dxy    dyz    dz2    dxz    dx2    tot
  1  0.000  0.000  0.000  0.000  0.108  0.278  0.201  0.042  0.332  0.961
 
band   3 # energy    4.36239877 # occ.  2.00000000
 
ion      s     py     pz     px    dxy    dyz    dz2    dxz    dx2    tot
  1  0.000  0.000  0.000  0.000  0.178  0.007  0.332  0.243  0.201  0.961
 
band   4 # energy    4.86478946 # occ.  2.00000000
 
ion      s     py     pz     px    dxy    dyz    dz2    dxz    dx2    tot
  1  0.072  0.085  0.085  0.085  0.132  0.132  0.000  0.132  0.000  0.722
 
band   5 # energy    5.58513908 # occ.  2.03469163
 
ion      s     py     pz     px    dxy    dyz    dz2    dxz    dx2    tot
  1  0.000  0.000  0.000  0.000  0.288  0.259  0.345  0.004  0.095  0.991
 
band   6 # energy    5.58513908 # occ.  2.03469163
 
ion      s     py     pz     px    dxy    dyz    dz2    dxz    dx2    tot
  1  0.000  0.000  0.000  0.000  0.080  0.108  0.095  0.363  0.345  0.991
 
band   7 # energy   13.82129879 # occ.  0.00000000
 
ion      s     py     pz     px    dxy    dyz    dz2    dxz    dx2    tot
  1  0.257  0.066  0.066  0.066  0.086  0.086  0.000  0.086  0.000  0.713
 
band   8 # energy   28.75260266 # occ.  0.00000000
 
ion      s     py     pz     px    dxy    dyz    dz2    dxz    dx2    tot
  1  0.007  0.005  0.006  0.005  0.006  0.006  0.000  0.006  0.000  0.041
 
band   9 # energy   29.41865735 # occ.  0.00000000
 
ion      s     py     pz     px    dxy    dyz    dz2    dxz    dx2    tot
  1  0.000  0.292  0.145  0.120  0.023  0.019  0.007  0.046  0.011  0.663
 

 k-point   11 :    0.37179487 0.37179487 0.37179487     weight = 0.00625000

band   1 # energy    1.79797006 # occ.  2.00000000
 
ion      s     py     pz     px    dxy    dyz    dz2    dxz    dx2    tot
  1  0.273  0.023  0.023  0.023  0.126  0.126  0.000  0.126  0.000  0.719
 
band   2 # energy    4.37508794 # occ.  2.00000000
 
ion      s     py     pz     px    dxy    dyz    dz2    dxz    dx2    tot
  1  0.000  0.000  0.000  0.000  0.247  0.065  0.441  0.127  0.081  0.962
 
band   3 # energy    4.37508794 # occ.  2.00000000
 
ion      s     py     pz     px    dxy    dyz    dz2    dxz    dx2    tot
  1  0.000  0.000  0.000  0.000  0.046  0.228  0.081  0.166  0.441  0.962
 
band   4 # energy    4.69700871 # occ.  2.00000000
 
ion      s     py     pz     px    dxy    dyz    dz2    dxz    dx2    tot
  1  0.066  0.073  0.073  0.073  0.155  0.155  0.000  0.155  0.000  0.751
 
band   5 # energy    5.55517081 # occ.  2.02325020
 
ion      s     py     pz     px    dxy    dyz    dz2    dxz    dx2    tot
  1  0.000  0.000  0.000  0.000  0.160  0.239  0.201  0.140  0.250  0.991
 
band   6 # energy    5.55517081 # occ.  2.02325020
 
ion      s     py     pz     px    dxy    dyz    dz2    dxz    dx2    tot
  1  0.000  0.000  0.000  0.000  0.199  0.120  0.250  0.219  0.201  0.991
 
band   7 # energy   14.31583715 # occ.  0.00000000
 
ion      s     py     pz     px    dxy    dyz    dz2    dxz    dx2    tot
  1  0.239  0.072  0.072  0.072  0.083  0.083  0.000  0.083  0.000  0.703
 
band   8 # energy   28.83250475 # occ.  0.00000000
 
ion      s     py     pz     px    dxy    dyz    dz2    dxz    dx2    tot
  1  0.008  0.004  0.006  0.005  0.007  0.007  0.000  0.008  0.000  0.045
 
band   9 # energy   29.45193199 # occ.  0.00000000
 
ion      s     py     pz     px    dxy    dyz    dz2    dxz    dx2    tot
  1  0.000  0.029  0.298  0.217  0.056  0.041  0.016  0.006  0.004  0.666
 

 k-point   12 :    0.35897436 0.35897436 0.35897436     weight = 0.00625000

band   1 # energy    1.66799397 # occ.  2.00000000
 
ion      s     py     pz     px    dxy    dyz    dz2    dxz    dx2    tot
  1  0.298  0.026  0.026  0.026  0.107  0.107  0.000  0.107  0.000  0.698
 
band   2 # energy    4.38848316 # occ.  2.00000000
 
ion      s     py     pz     px    dxy    dyz    dz2    dxz    dx2    tot
  1  0.000  0.000  0.000  0.000  0.087  0.114  0.147  0.251  0.362  0.962
 
band   3 # energy    4.38848316 # occ.  2.00000000
 
ion      s     py     pz     px    dxy    dyz    dz2    dxz    dx2    tot
  1  0.000  0.000  0.000  0.000  0.215  0.188  0.362  0.050  0.147  0.962
 
band   4 # energy    4.55124056 # occ.  2.00000000
 
ion      s     py     pz     px    dxy    dyz    dz2    dxz    dx2    tot
  1  0.059  0.062  0.062  0.062  0.178  0.178  0.000  0.178  0.000  0.779
 
band   5 # energy    5.52333910 # occ.  2.01416328
 
ion      s     py     pz     px    dxy    dyz    dz2    dxz    dx2    tot
  1  0.000  0.000  0.000  0.000  0.201  0.255  0.267  0.068  0.197  0.990
 
band   6 # energy    5.52333910 # occ.  2.01416328
 
ion      s     py     pz     px    dxy    dyz    dz2    dxz    dx2    tot
  1  0.000  0.000  0.000  0.000  0.149  0.095  0.197  0.282  0.267  0.990
 
band   7 # energy   14.82882564 # occ.  0.00000000
 
ion      s     py     pz     px    dxy    dyz    dz2    dxz    dx2    tot
  1  0.222  0.077  0.077  0.077  0.080  0.080  0.000  0.080  0.000  0.693
 
band   8 # energy   28.91858411 # occ.  0.00000000
 
ion      s     py     pz     px    dxy    dyz    dz2    dxz    dx2    tot
  1  0.010  0.005  0.004  0.003  0.009  0.009  0.000  0.008  0.000  0.049
 
band   9 # energy   29.49037411 # occ.  0.00000000
 
ion      s     py     pz     px    dxy    dyz    dz2    dxz    dx2    tot
  1  0.000  0.016  0.304  0.209  0.068  0.046  0.019  0.003  0.003  0.668
 

 k-point   13 :    0.34615385 0.34615385 0.34615385     weight = 0.00625000

band   1 # energy    1.52040518 # occ.  2.00000000
 
ion      s     py     pz     px    dxy    dyz    dz2    dxz    dx2    tot
  1  0.323  0.030  0.030  0.030  0.089  0.089  0.000  0.089  0.000  0.678
 
band   2 # energy    4.40237683 # occ.  2.00000000
 
ion      s     py     pz     px    dxy    dyz    dz2    dxz    dx2    tot
  1  0.000  0.000  0.000  0.000  0.082  0.090  0.130  0.296  0.365  0.963
 
band   3 # energy    4.40237683 # occ.  2.00000000
 
ion      s     py     pz     px    dxy    dyz    dz2    dxz    dx2    tot
  1  0.000  0.000  0.000  0.000  0.230  0.222  0.365  0.016  0.130  0.963
 
band   4 # energy    4.42856777 # occ.  2.00000000
 
ion      s     py     pz     px    dxy    dyz    dz2    dxz    dx2    tot
  1  0.050  0.052  0.052  0.052  0.200  0.200  0.000  0.200  0.000  0.806
 
band   5 # energy    5.49001339 # occ.  2.00784511
 
ion      s     py     pz     px    dxy    dyz    dz2    dxz    dx2    tot
  1  0.000  0.000  0.000  0.000  0.237  0.130  0.335  0.142  0.145  0.989
 
band   6 # energy    5.49001339 # occ.  2.00784511
 
ion      s     py     pz     px    dxy    dyz    dz2    dxz    dx2    tot
  1  0.000  0.000  0.000  0.000  0.103  0.210  0.145  0.197  0.335  0.989
 
band   7 # energy   15.35818906 # occ.  0.00000000
 
ion      s     py     pz     px    dxy    dyz    dz2    dxz    dx2    tot
  1  0.206  0.081  0.081  0.081  0.078  0.078  0.000  0.078  0.000  0.685
 
band   8 # energy   29.01566159 # occ.  0.00000000
 
ion      s     py     pz     px    dxy    dyz    dz2    dxz    dx2    tot
  1  0.012  0.004  0.005  0.001  0.009  0.013  0.000  0.010  0.000  0.055
 
band   9 # energy   29.53409336 # occ.  0.00000000
 
ion      s     py     pz     px    dxy    dyz    dz2    dxz    dx2    tot
  1  0.000  0.333  0.112  0.071  0.028  0.018  0.008  0.085  0.016  0.670
 

 k-point   14 :    0.33333333 0.33333333 0.33333333     weight = 0.00625000

band   1 # energy    1.35704434 # occ.  2.00000000
 
ion      s     py     pz     px    dxy    dyz    dz2    dxz    dx2    tot
  1  0.347  0.032  0.032  0.032  0.072  0.072  0.000  0.072  0.000  0.661
 
band   2 # energy    4.32855987 # occ.  2.00000000
 
ion      s     py     pz     px    dxy    dyz    dz2    dxz    dx2    tot
  1  0.042  0.043  0.043  0.043  0.219  0.219  0.000  0.219  0.000  0.829
 
band   3 # energy    4.41653535 # occ.  2.00000000
 
ion      s     py     pz     px    dxy    dyz    dz2    dxz    dx2    tot
  1  0.000  0.000  0.000  0.000  0.160  0.064  0.236  0.262  0.242  0.963
 
band   4 # energy    4.41653535 # occ.  2.00000000
 
ion      s     py     pz     px    dxy    dyz    dz2    dxz    dx2    tot
  1  0.000  0.000  0.000  0.000  0.164  0.260  0.242  0.062  0.236  0.963
 
band   5 # energy    5.45559476 # occ.  2.00396342
 
ion      s     py     pz     px    dxy    dyz    dz2    dxz    dx2    tot
  1  0.000  0.000  0.000  0.000  0.074  0.207  0.112  0.210  0.385  0.988
 
band   6 # energy    5.45559476 # occ.  2.00396342
 
ion      s     py     pz     px    dxy    dyz    dz2    dxz    dx2    tot
  1  0.000  0.000  0.000  0.000  0.254  0.120  0.385  0.117  0.112  0.988
 
band   7 # energy   15.90230294 # occ.  0.00000000
 
ion      s     py     pz     px    dxy    dyz    dz2    dxz    dx2    tot
  1  0.191  0.085  0.085  0.085  0.077  0.077  0.000  0.077  0.000  0.677
 
band   8 # energy   29.10471625 # occ.  0.00000000
 
ion      s     py     pz     px    dxy    dyz    dz2    dxz    dx2    tot
  1  0.014  0.001  0.005  0.003  0.010  0.011  0.000  0.015  0.000  0.058
 
band   9 # energy   29.58353007 # occ.  0.00000000
 
ion      s     py     pz     px    dxy    dyz    dz2    dxz    dx2    tot
  1  0.000  0.033  0.148  0.320  0.043  0.092  0.011  0.009  0.014  0.671
 

 k-point   15 :    0.32051282 0.32051282 0.32051282     weight = 0.00625000

band   1 # energy    1.18053194 # occ.  2.00000000
 
ion      s     py     pz     px    dxy    dyz    dz2    dxz    dx2    tot
  1  0.370  0.034  0.034  0.034  0.058  0.058  0.000  0.058  0.000  0.645
 
band   2 # energy    4.24964424 # occ.  2.00000000
 
ion      s     py     pz     px    dxy    dyz    dz2    dxz    dx2    tot
  1  0.034  0.036  0.036  0.036  0.237  0.237  0.000  0.237  0.000  0.850
 
band   3 # energy    4.43069366 # occ.  2.00000000
 
ion      s     py     pz     px    dxy    dyz    dz2    dxz    dx2    tot
  1  0.000  0.000  0.000  0.000  0.245  0.255  0.334  0.005  0.125  0.964
 
band   4 # energy    4.43069366 # occ.  2.00000000
 
ion      s     py     pz     px    dxy    dyz    dz2    dxz    dx2    tot
  1  0.000  0.000  0.000  0.000  0.091  0.081  0.125  0.332  0.334  0.964
 
band   5 # energy    5.42051723 # occ.  2.00183786
 
ion      s     py     pz     px    dxy    dyz    dz2    dxz    dx2    tot
  1  0.000  0.000  0.000  0.000  0.102  0.163  0.167  0.206  0.349  0.988
 
band   6 # energy    5.42051723 # occ.  2.00183786
 
ion      s     py     pz     px    dxy    dyz    dz2    dxz    dx2    tot
  1  0.000  0.000  0.000  0.000  0.212  0.151  0.349  0.108  0.167  0.988
 
band   7 # energy   16.45989419 # occ.  0.00000000
 
ion      s     py     pz     px    dxy    dyz    dz2    dxz    dx2    tot
  1  0.177  0.088  0.088  0.088  0.076  0.076  0.000  0.076  0.000  0.669
 
band   8 # energy   29.20500956 # occ.  0.00000000
 
ion      s     py     pz     px    dxy    dyz    dz2    dxz    dx2    tot
  1  0.016  0.001  0.003  0.002  0.013  0.014  0.000  0.014  0.000  0.062
 
band   9 # energy   29.63879171 # occ.  0.00000000
 
ion      s     py     pz     px    dxy    dyz    dz2    dxz    dx2    tot
  1  0.000  0.271  0.006  0.211  0.002  0.068  0.000  0.088  0.026  0.672
 

 k-point   16 :    0.30769231 0.30769231 0.30769231     weight = 0.00625000

band   1 # energy    0.99392454 # occ.  2.00000000
 
ion      s     py     pz     px    dxy    dyz    dz2    dxz    dx2    tot
  1  0.392  0.035  0.035  0.035  0.046  0.046  0.000  0.046  0.000  0.632
 
band   2 # energy    4.18955428 # occ.  2.00000000
 
ion      s     py     pz     px    dxy    dyz    dz2    dxz    dx2    tot
  1  0.027  0.029  0.029  0.029  0.251  0.251  0.000  0.251  0.000  0.868
 
band   3 # energy    4.44455517 # occ.  2.00000000
 
ion      s     py     pz     px    dxy    dyz    dz2    dxz    dx2    tot
  1  0.000  0.000  0.000  0.000  0.136  0.241  0.169  0.150  0.268  0.964
 
band   4 # energy    4.44455517 # occ.  2.00000000
 
ion      s     py     pz     px    dxy    dyz    dz2    dxz    dx2    tot
  1  0.000  0.000  0.000  0.000  0.216  0.110  0.268  0.201  0.169  0.964
 
band   5 # energy    5.38525092 # occ.  2.00079012
 
ion      s     py     pz     px    dxy    dyz    dz2    dxz    dx2    tot
  1  0.000  0.000  0.000  0.000  0.177  0.257  0.320  0.014  0.219  0.987
 
band   6 # energy    5.38525092 # occ.  2.00079012
 
ion      s     py     pz     px    dxy    dyz    dz2    dxz    dx2    tot
  1  0.000  0.001  0.000  0.000  0.121  0.041  0.219  0.284  0.320  0.987
 