<?xml version="1.0" encoding="ISO-8859-1"?>
<modeling>
 <generator>
  <i name="program" type="string">vasp </i>
  <i name="version" type="string">5.3.2  </i>
  <i name="subversion" type="string">13Sep12 (build Nov 15 2012 16:01:14) complex                          serial </i>
  <i name="platform" type="string">LinuxIFC </i>
  <i name="date" type="string">2014 04 25 </i>
  <i name="time" type="string">15:42:12 </i>
 </generator>
 <incar>
  <i type="string" name="SYSTEM"> "Cu metal"</i>
  <i type="string" name="PREC">accurate</i>
  <i type="int" name="ICHARG">    11</i>
  <i name="EDIFF">      0.00000100</i>
  <i type="int" name="NSW">     0</i>
  <i name="ENCUT">    450.00000000</i>
  <i type="int" name="ISMEAR">     1</i>
  <i name="SIGMA">      0.20000000</i>
  <i type="logical" name="LORBIT"> F  </i>
  <i type="string" name="GGA"> PS</i>
 </incar>
 <kpoints>
  <generation param="listgenerated">
   <i name="divisions" type="int">      40 </i>
   <v>       0.50000000       0.50000000       0.50000000 </v>
   <v>       0.00000000       0.00000000       0.00000000 </v>
   <v>       0.00000000       0.50000000       0.50000000 </v>
   <v>       0.37500000       0.75000000       0.37500000 </v>
   <v>       0.00000000       0.00000000       0.00000000 </v>
  </generation>
  <varray name="kpointlist" >
   <v>       0.50000000       0.50000000       0.50000000 </v>
   <v>       0.48717949       0.48717949       0.48717949 </v>
   <v>       0.47435897       0.47435897       0.47435897 </v>
   <v>       0.46153846       0.46153846       0.46153846 </v>
   <v>       0.44871795       0.44871795       0.44871795 </v>
   <v>       0.43589744       0.43589744       0.43589744 </v>
   <v>       0.42307692       0.42307692       0.42307692 </v>
   <v>       0.41025641       0.41025641       0.41025641 </v>
   <v>       0.39743590       0.39743590       0.39743590 </v>
   <v>       0.38461538       0.38461538       0.38461538 </v>
   <v>       0.37179487       0.37179487       0.37179487 </v>
   <v>       0.35897436       0.35897436       0.35897436 </v>
   <v>       0.34615385       0.34615385       0.34615385 </v>
   <v>       0.33333333       0.33333333       0.33333333 </v>
   <v>       0.32051282       0.32051282       0.32051282 </v>
   <v>       0.30769231       0.30769231       0.30769231 </v>
   <v>       0.29487179       0.29487179       0.29487179 </v>
   <v>       0.28205128       0.28205128       0.28205128 </v>
   <v>       0.26923077       0.26923077       0.26923077 </v>
   <v>       0.25641026       0.25641026       0.25641026 </v>
   <v>       0.24358974       0.24358974       0.24358974 </v>
   <v>       0.23076923       0.23076923       0.23076923 </v>
   <v>       0.21794872       0.21794872       0.21794872 </v>
   <v>       0.20512821       0.20512821       0.20512821 </v>
   <v>       0.19230769       0.19230769       0.19230769 </v>
   <v>       0.17948718       0.17948718       0.17948718 </v>
   <v>       0.16666667       0.16666667       0.16666667 </v>
   <v>       0.15384615       0.15384615       0.15384615 </v>
   <v>       0.14102564       0.14102564       0.14102564 </v>
   <v>       0.12820513       0.12820513       0.12820513 </v>
   <v>       0.11538462       0.11538462       0.11538462 </v>
   <v>       0.10256410       0.10256410       0.10256410 </v>
   <v>       0.08974359       0.08974359       0.08974359 </v>
   <v>       0.07692308       0.07692308       0.07692308 </v>
   <v>       0.06410256       0.06410256       0.06410256 </v>
   <v>       0.05128205       0.05128205       0.05128205 </v>
   <v>       0.03846154       0.03846154       0.03846154 </v>
   <v>       0.02564103       0.02564103       0.02564103 </v>
   <v>       0.01282051       0.01282051       0.01282051 </v>
   <v>       0.00000000       0.00000000       0.00000000 </v>
   <v>       0.00000000       0.00000000       0.00000000 </v>
   <v>       0.00000000       0.01282051       0.01282051 </v>
   <v>       0.00000000       0.02564103       0.02564103 </v>
   <v>       0.00000000       0.03846154       0.03846154 </v>
   <v>       0.00000000       0.05128205       0.05128205 </v>
   <v>       0.00000000       0.06410256       0.06410256 </v>
   <v>       0.00000000       0.07692308       0.07692308 </v>
   <v>       0.00000000       0.08974359       0.08974359 </v>
   <v>       0.00000000       0.10256410       0.10256410 </v>
   <v>       0.00000000       0.11538462       0.11538462 </v>
   <v>       0.00000000       0.12820513       0.12820513 </v>
   <v>       0.00000000       0.14102564       0.14102564 </v>
   <v>       0.00000000       0.15384615       0.15384615 </v>
   <v>       0.00000000       0.16666667       0.16666667 </v>
   <v>       0.00000000       0.17948718       0.17948718 </v>
   <v>       0.00000000       0.19230769       0.19230769 </v>
   <v>       0.00000000       0.20512821       0.20512821 </v>
   <v>       0.00000000       0.21794872       0.21794872 </v>
   <v>       0.00000000       0.23076923       0.23076923 </v>
   <v>       0.00000000       0.24358974       0.24358974 </v>
   <v>       0.00000000       0.25641026       0.25641026 </v>
   <v>       0.00000000       0.26923077       0.26923077 </v>
   <v>       0.00000000       0.28205128       0.28205128 </v>
   <v>       0.00000000       0.29487179       0.29487179 </v>
   <v>       0.00000000       0.30769231       0.30769231 </v>
   <v>       0.00000000       0.32051282       0.32051282 </v>
   <v>       0.00000000       0.33333333       0.33333333 </v>
   <v>       0.00000000       0.34615385       0.34615385 </v>
   <v>       0.00000000       0.35897436       0.35897436 </v>
   <v>       0.00000000       0.37179487       0.37179487 </v>
   <v>       0.00000000       0.38461538       0.38461538 </v>
   <v>       0.00000000       0.39743590       0.39743590 </v>
   <v>       0.00000000       0.41025641       0.41025641 </v>
   <v>       0.00000000       0.42307692       0.42307692 </v>
   <v>       0.00000000       0.43589744       0.43589744 </v>
   <v>       0.00000000       0.44871795       0.44871795 </v>
   <v>       0.00000000       0.46153846       0.46153846 </v>
   <v>       0.00000000       0.47435897       0.47435897 </v>
   <v>       0.00000000       0.48717949       0.48717949 </v>
   <v>       0.00000000       0.50000000       0.50000000 </v>
   <v>       0.00000000       0.50000000       0.50000000 </v>
   <v>       0.00641026       0.50320513       0.50320513 </v>
   <v>       0.01282051       0.50641026       0.50641026 </v>
   <v>       0.01923077       0.50961538       0.50961538 </v>
   <v>       0.02564103       0.51282051       0.51282051 </v>
   <v>       0.03205128       0.51602564       0.51602564 </v>
   <v>       0.03846154       0.51923077       0.51923077 </v>
   <v>       0.04487179       0.52243590       0.52243590 </v>
   <v>       0.05128205       0.52564103       0.52564103 </v>
   <v>       0.05769231       0.52884615       0.52884615 </v>
   <v>       0.06410256       0.53205128       0.53205128 </v>
   <v>       0.07051282       0.53525641       0.53525641 </v>
   <v>       0.07692308       0.53846154       0.53846154 </v>
   <v>       0.08333333       0.54166667       0.54166667 </v>
   <v>       0.08974359       0.54487179       0.54487179 </v>
   <v>       0.09615385       0.54807692       0.54807692 </v>
   <v>       0.10256410       0.55128205       0.55128205 </v>
   <v>       0.10897436       0.55448718       0.55448718 </v>
   <v>       0.11538462       0.55769231       0.55769231 </v>
   <v>       0.12179487       0.56089744       0.56089744 </v>
   <v>       0.12820513       0.56410256       0.56410256 </v>
   <v>       0.13461538       0.56730769       0.56730769 </v>
   <v>       0.14102564       0.57051282       0.57051282 </v>
   <v>       0.14743590       0.57371795       0.57371795 </v>
   <v>       0.15384615       0.57692308       0.57692308 </v>
   <v>       0.16025641       0.58012821       0.58012821 </v>
   <v>       0.16666667       0.58333333       0.58333333 </v>
   <v>       0.17307692       0.58653846       0.58653846 </v>
   <v>       0.17948718       0.58974359       0.58974359 </v>
   <v>       0.18589744       0.59294872       0.59294872 </v>
   <v>       0.19230769       0.59615385       0.59615385 </v>
   <v>       0.19871795       0.59935897       0.59935897 </v>
   <v>       0.20512821       0.60256410       0.60256410 </v>
   <v>       0.21153846       0.60576923       0.60576923 </v>
   <v>       0.21794872       0.60897436       0.60897436 </v>
   <v>       0.22435897       0.61217949       0.61217949 </v>
   <v>       0.23076923       0.61538462       0.61538462 </v>
   <v>       0.23717949       0.61858974       0.61858974 </v>
   <v>       0.24358974       0.62179487       0.62179487 </v>
   <v>       0.25000000       0.62500000       0.62500000 </v>
   <v>       0.37500000       0.75000000       0.37500000 </v>
   <v>       0.36538462       0.73076923       0.36538462 </v>
   <v>       0.35576923       0.71153846       0.35576923 </v>
   <v>       0.34615385       0.69230769       0.34615385 </v>
   <v>       0.33653846       0.67307692       0.33653846 </v>
   <v>       0.32692308       0.65384615       0.32692308 </v>
   <v>       0.31730769       0.63461538       0.31730769 </v>
   <v>       0.30769231       0.61538462       0.30769231 </v>
   <v>       0.29807692       0.59615385       0.29807692 </v>
   <v>       0.28846154       0.57692308       0.28846154 </v>
   <v>       0.27884615       0.55769231       0.27884615 </v>
   <v>       0.26923077       0.53846154       0.26923077 </v>
   <v>       0.25961538       0.51923077       0.25961538 </v>
   <v>       0.25000000       0.50000000       0.25000000 </v>
   <v>       0.24038462       0.48076923       0.24038462 </v>
   <v>       0.23076923       0.46153846       0.23076923 </v>
   <v>       0.22115385       0.44230769       0.22115385 </v>
   <v>       0.21153846       0.42307692       0.21153846 </v>
   <v>       0.20192308       0.40384615       0.20192308 </v>
   <v>       0.19230769       0.38461538       0.19230769 </v>
   <v>       0.18269231       0.36538462       0.18269231 </v>
   <v>       0.17307692       0.34615385       0.17307692 </v>
   <v>       0.16346154       0.32692308       0.16346154 </v>
   <v>       0.15384615       0.30769231       0.15384615 </v>
   <v>       0.14423077       0.28846154       0.14423077 </v>
   <v>       0.13461538       0.26923077       0.13461538 </v>
   <v>       0.12500000       0.25000000       0.12500000 </v>
   <v>       0.11538462       0.23076923       0.11538462 </v>
   <v>       0.10576923       0.21153846       0.10576923 </v>
   <v>       0.09615385       0.19230769       0.09615385 </v>
   <v>       0.08653846       0.17307692       0.08653846 </v>
   <v>       0.07692308       0.15384615       0.07692308 </v>
   <v>       0.06730769       0.13461538       0.06730769 </v>
   <v>       0.05769231       0.11538462       0.05769231 </v>
   <v>       0.04807692       0.09615385       0.04807692 </v>
   <v>       0.03846154       0.07692308       0.03846154 </v>
   <v>       0.02884615       0.05769231       0.02884615 </v>
   <v>       0.01923077       0.03846154       0.01923077 </v>
   <v>       0.00961538       0.01923077       0.00961538 </v>
   <v>       0.00000000       0.00000000       0.00000000 </v>
  </varray>
  <varray name="weights" >
   <v>       0.00625000 </v>
   <v>       0.00625000 </v>
   <v>       0.00625000 </v>
   <v>       0.00625000 </v>
   <v>       0.00625000 </v>
   <v>       0.00625000 </v>
   <v>       0.00625000 </v>
   <v>       0.00625000 </v>
   <v>       0.00625000 </v>
   <v>       0.00625000 </v>
   <v>       0.00625000 </v>
   <v>       0.00625000 </v>
   <v>       0.00625000 </v>
   <v>       0.00625000 </v>
   <v>       0.00625000 </v>
   <v>       0.00625000 </v>
   <v>       0.00625000 </v>
   <v>       0.00625000 </v>
   <v>       0.00625000 </v>
   <v>       0.00625000 </v>
   <v>       0.00625000 </v>
   <v>       0.00625000 </v>
   <v>       0.00625000 </v>
   <v>       0.00625000 </v>
   <v>       0.00625000 </v>
   <v>       0.00625000 </v>
   <v>       0.00625000 </v>
   <v>       0.00625000 </v>
   <v>       0.00625000 </v>
   <v>       0.00625000 </v>
   <v>       0.00625000 </v>
   <v>       0.00625000 </v>
   <v>       0.00625000 </v>
   <v>       0.00625000 </v>
   <v>       0.00625000 </v>
   <v>       0.00625000 </v>
   <v>       0.00625000 </v>
   <v>       0.00625000 </v>
   <v>       0.00625000 </v>
   <v>       0.00625000 </v>
   <v>       0.00625000 </v>
   <v>       0.00625000 </v>
   <v>       0.00625000 </v>
   <v>       0.00625000 </v>
   <v>       0.00625000 </v>
   <v>       0.00625000 </v>
   <v>       0.00625000 </v>
   <v>       0.00625000 </v>
   <v>       0.00625000 </v>
   <v>       0.00625000 </v>
   <v>       0.00625000 </v>
   <v>       0.00625000 </v>
   <v>       0.00625000 </v>
   <v>       0.00625000 </v>
   <v>       0.00625000 </v>
   <v>       0.00625000 </v>
   <v>       0.00625000 </v>
   <v>       0.00625000 </v>
   <v>       0.00625000 </v>
   <v>       0.00625000 </v>
   <v>       0.00625000 </v>
   <v>       0.00625000 </v>
   <v>       0.00625000 </v>
   <v>       0.00625000 </v>
   <v>       0.00625000 </v>
   <v>       0.00625000 </v>
   <v>       0.00625000 </v>
   <v>       0.00625000 </v>
   <v>       0.00625000 </v>
   <v>       0.00625000 </v>
   <v>       0.00625000 </v>
   <v>       0.00625000 </v>
   <v>       0.00625000 </v>
   <v>       0.00625000 </v>
   <v>       0.00625000 </v>
   <v>       0.00625000 </v>
   <v>       0.00625000 </v>
   <v>       0.00625000 </v>
   <v>       0.00625000 </v>
   <v>       0.00625000 </v>
   <v>       0.00625000 </v>
   <v>       0.00625000 </v>
   <v>       0.00625000 </v>
   <v>       0.00625000 </v>
   <v>       0.00625000 </v>
   <v>       0.00625000 </v>
   <v>       0.00625000 </v>
   <v>       0.00625000 </v>
   <v>       0.00625000 </v>
   <v>       0.00625000 </v>
   <v>       0.00625000 </v>
   <v>       0.00625000 </v>
   <v>       0.00625000 </v>
   <v>       0.00625000 </v>
   <v>       0.00625000 </v>
   <v>       0.00625000 </v>
   <v>       0.00625000 </v>
   <v>       0.00625000 </v>
   <v>       0.00625000 </v>
   <v>       0.00625000 </v>
   <v>       0.00625000 </v>
   <v>       0.00625000 </v>
   <v>       0.00625000 </v>
   <v>       0.00625000 </v>
   <v>       0.00625000 </v>
   <v>       0.00625000 </v>
   <v>       0.00625000 </v>
   <v>       0.00625000 </v>
   <v>       0.00625000 </v>
   <v>       0.00625000 </v>
   <v>       0.00625000 </v>
   <v>       0.00625000 </v>
   <v>       0.00625000 </v>
   <v>       0.00625000 </v>
   <v>       0.00625000 </v>
   <v>       0.00625000 </v>
   <v>       0.00625000 </v>
   <v>       0.00625000 </v>
   <v>       0.00625000 </v>
   <v>       0.00625000 </v>
   <v>       0.00625000 </v>
   <v>       0.00625000 </v>
   <v>       0.00625000 </v>
   <v>       0.00625000 </v>
   <v>       0.00625000 </v>
   <v>       0.00625000 </v>
   <v>       0.00625000 </v>
   <v>       0.00625000 </v>
   <v>       0.00625000 </v>
   <v>       0.00625000 </v>
   <v>       0.00625000 </v>
   <v>       0.00625000 </v>
   <v>       0.00625000 </v>
   <v>       0.00625000 </v>
   <v>       0.00625000 </v>
   <v>       0.00625000 </v>
   <v>       0.00625000 </v>
   <v>       0.00625000 </v>
   <v>       0.00625000 </v>
   <v>       0.00625000 </v>
   <v>       0.00625000 </v>
   <v>       0.00625000 </v>
   <v>       0.00625000 </v>
   <v>       0.00625000 </v>
   <v>       0.00625000 </v>
   <v>       0.00625000 </v>
   <v>       0.00625000 </v>
   <v>       0.00625000 </v>
   <v>       0.00625000 </v>
   <v>       0.00625000 </v>
   <v>       0.00625000 </v>
   <v>       0.00625000 </v>
   <v>       0.00625000 </v>
   <v>       0.00625000 </v>
   <v>       0.00625000 </v>
   <v>       0.00625000 </v>
   <v>       0.00625000 </v>
   <v>       0.00625000 </v>
   <v>       0.00625000 </v>
   <v>       0.00625000 </v>
  </varray>
 </kpoints>
 <parameters>
  <separator name="general" >
   <i type="string" name="SYSTEM">"Cu metal"</i>
   <i type="logical" name="LCOMPAT"> F  </i>
  </separator>
  <separator name="electronic" >
   <i type="string" name="PREC">accura</i>
   <i name="ENMAX">    450.00000000</i>
   <i name="ENAUG">    586.98000000</i>
   <i name="EDIFF">      0.00000100</i>
   <i type="int" name="IALGO">    38</i>
   <i type="int" name="IWAVPR">     0</i>
   <i type="int" name="NBANDS">     9</i>
   <i name="NELECT">     11.00000000</i>
   <i type="int" name="TURBO">     0</i>
   <i type="int" name="IRESTART">     0</i>
   <i type="int" name="NREBOOT">     0</i>
   <i type="int" name="NMIN">     0</i>
   <i name="EREF">      0.00000000</i>
   <separator name="electronic smearing" >
    <i type="int" name="ISMEAR">     1</i>
    <i name="SIGMA">      0.20000000</i>
    <i name="KSPACING">      0.50000000</i>
    <i type="logical" name="KGAMMA"> T  </i>
   </separator>
   <separator name="electronic projectors" >
    <i type="logical" name="LREAL"> F  </i>
    <v name="ROPT">      0.00000000</v>
    <i type="int" name="LMAXPAW">  -100</i>
    <i type="int" name="LMAXMIX">     2</i>
    <i type="logical" name="NLSPLINE"> F  </i>
   </separator>
   <separator name="electronic startup" >
    <i type="int" name="ISTART">     0</i>
    <i type="int" name="ICHARG">    11</i>
    <i type="int" name="INIWAV">     1</i>
   </separator>
   <separator name="electronic spin" >
    <i type="int" name="ISPIN">     1</i>
    <i type="logical" name="LNONCOLLINEAR"> F  </i>
    <v name="MAGMOM">      1.00000000</v>
    <i name="NUPDOWN">     -1.00000000</i>
    <i type="logical" name="LSORBIT"> F  </i>
    <v name="SAXIS">      0.00000000      0.00000000      1.00000000</v>
    <i type="logical" name="LSPIRAL"> F  </i>
    <v name="QSPIRAL">      0.00000000      0.00000000      0.00000000</v>
    <i type="logical" name="LZEROZ"> F  </i>
   </separator>
   <separator name="electronic exchange-correlation" >
    <i type="logical" name="LASPH"> F  </i>
    <i type="logical" name="LMETAGGA"> F  </i>
   </separator>
   <separator name="electronic convergence" >
    <i type="int" name="NELM">    60</i>
    <i type="int" name="NELMDL">    -5</i>
    <i type="int" name="NELMIN">     2</i>
    <i name="ENINI">    450.00000000</i>
    <separator name="electronic convergence detail" >
     <i type="logical" name="LDIAG"> T  </i>
     <i type="logical" name="LSUBROT"> T  </i>
     <i name="WEIMIN">      0.00000000</i>
     <i name="EBREAK">      0.00000003</i>
     <i name="DEPER">      0.30000000</i>
     <i type="int" name="NRMM">     4</i>
     <i name="TIME">      0.40000000</i>
    </separator>
   </separator>
   <separator name="electronic mixer" >
    <i name="AMIX">      0.40000000</i>
    <i name="BMIX">      1.00000000</i>
    <i name="AMIN">      0.10000000</i>
    <i name="AMIX_MAG">      1.60000000</i>
    <i name="BMIX_MAG">      1.00000000</i>
    <separator name="electronic mixer details" >
     <i type="int" name="IMIX">     4</i>
     <i type="int" name="MAXMIX">   -45</i>
     <i name="WC">    100.00000000</i>
     <i type="int" name="INIMIX">     1</i>
     <i type="int" name="MIXPRE">     1</i>
     <i type="int" name="MREMOVE">     5</i>
    </separator>
   </separator>
   <separator name="electronic dipolcorrection" >
    <i type="logical" name="LDIPOL"> F  </i>
    <i type="logical" name="LMONO"> F  </i>
    <i type="int" name="IDIPOL">     0</i>
    <i name="EPSILON">      1.00000000</i>
    <v name="DIPOL">   -100.00000000   -100.00000000   -100.00000000</v>
    <i name="EFIELD">      0.00000000</i>
   </separator>
  </separator>
  <separator name="grids" >
   <i type="int" name="NGX">    18</i>
   <i type="int" name="NGY">    18</i>
   <i type="int" name="NGZ">    18</i>
   <i type="int" name="NGXF">    36</i>
   <i type="int" name="NGYF">    36</i>
   <i type="int" name="NGZF">    36</i>
   <i type="logical" name="ADDGRID"> F  </i>
  </separator>
  <separator name="ionic" >
   <i type="int" name="NSW">     0</i>
   <i type="int" name="IBRION">    -1</i>
   <i type="int" name="ISIF">     2</i>
   <i name="PSTRESS">      0.00000000</i>
   <i name="EDIFFG">      0.00001000</i>
   <i type="int" name="NFREE">     0</i>
   <i name="POTIM">      0.50000000</i>
   <i name="SMASS">     -3.00000000</i>
   <i name="SCALEE">      1.00000000</i>
  </separator>
  <separator name="ionic md" >
   <i name="TEBEG">      0.00010000</i>
   <i name="TEEND">      0.00010000</i>
   <i type="int" name="NBLOCK">     1</i>
   <i type="int" name="KBLOCK">     1</i>
   <i type="int" name="NPACO">   256</i>
   <i name="APACO">     16.00000000</i>
  </separator>
  <separator name="symmetry" >
   <i type="int" name="ISYM">     2</i>
   <i name="SYMPREC">      0.00001000</i>
  </separator>
  <separator name="dos" >
   <i type="logical" name="LORBIT"> F  </i>
   <v name="RWIGS">     -1.00000000</v>
   <i type="int" name="NEDOS">   301</i>
   <i name="EMIN">     10.00000000</i>
   <i name="EMAX">    -10.00000000</i>
   <i name="EFERMI">      0.00000000</i>
  </separator>
  <separator name="writing" >
   <i type="int" name="NWRITE">     2</i>
   <i type="logical" name="LWAVE"> T  </i>
   <i type="logical" name="LCHARG"> T  </i>
   <i type="logical" name="LPARD"> F  </i>
   <i type="logical" name="LVTOT"> F  </i>
   <i type="logical" name="LVHAR"> F  </i>
   <i type="logical" name="LELF"> F  </i>
   <i type="logical" name="LOPTICS"> F  </i>
   <v name="STM">      0.00000000      0.00000000      0.00000000      0.00000000      0.00000000      0.00000000      0.00000000</v>
  </separator>
  <separator name="performance" >
   <i type="int" name="NPAR">     1</i>
   <i type="int" name="NSIM">     4</i>
   <i type="int" name="NBLK">    -1</i>
   <i type="logical" name="LPLANE"> T  </i>
   <i type="logical" name="LSCALAPACK"> F  </i>
   <i type="logical" name="LSCAAWARE"> F  </i>
   <i type="logical" name="LSCALU"> F  </i>
   <i type="logical" name="LASYNC"> F  </i>
   <i type="logical" name="LORBITALREAL"> F  </i>
  </separator>
  <separator name="miscellaneous" >
   <i type="int" name="IDIOT">     3</i>
   <i type="logical" name="LMUSIC"> F  </i>
   <v name="POMASS">     63.54600000</v>
   <v name="DARWINR">      0.00000000</v>
   <v name="DARWINV">      1.00000000</v>
   <i type="logical" name="LCORR"> T  </i>
  </separator>
  <i type="logical" name="GGA_COMPAT"> T  </i>
  <i type="logical" name="LBERRY"> F  </i>
  <i type="int" name="ICORELEVEL">     0</i>
  <i type="logical" name="LDAU"> F  </i>
  <i type="int" name="I_CONSTRAINED_M">     0</i>
  <separator name="electronic exchange-correlation" >
   <i type="string" name="GGA">PS</i>
   <i type="int" name="VOSKOWN">     0</i>
   <i type="logical" name="LHFCALC"> F  </i>
   <i type="string" name="PRECFOCK"></i>
   <i type="logical" name="LSYMGRAD"> F  </i>
   <i type="logical" name="LHFONE"> F  </i>
   <i type="logical" name="LRHFCALC"> F  </i>
   <i type="logical" name="LTHOMAS"> F  </i>
   <i type="logical" name="LMODELHF"> F  </i>
   <i name="ENCUT4O">     -1.00000000</i>
   <i type="int" name="EXXOEP">     0</i>
   <i type="int" name="FOURORBIT">     0</i>
   <i name="AEXX">      0.00000000</i>
   <i name="HFALPHA">      0.00000000</i>
   <i name="MCALPHA">      0.00000000</i>
   <i name="ALDAX">      1.00000000</i>
   <i name="AGGAX">      1.00000000</i>
   <i name="ALDAC">      1.00000000</i>
   <i name="AGGAC">      1.00000000</i>
   <i type="int" name="NKREDX">     1</i>
   <i type="int" name="NKREDY">     1</i>
   <i type="int" name="NKREDZ">     1</i>
   <i type="logical" name="SHIFTRED"> F  </i>
   <i type="logical" name="ODDONLY"> F  </i>
   <i type="logical" name="EVENONLY"> F  </i>
   <i type="int" name="LMAXFOCK">     0</i>
   <i type="int" name="NMAXFOCKAE">     0</i>
   <i type="logical" name="LFOCKAEDFT"> F  </i>
   <i name="HFSCREEN">      0.00000000</i>
   <i name="HFSCREENC">      0.00000000</i>
   <i type="int" name="NBANDSGWLOW">     0</i>
  </separator>
  <separator name="vdW DFT" >
   <i type="logical" name="LUSE_VDW"> F  </i>
   <i name="Zab_VDW">     -0.84910000</i>
   <i name="PARAM1">      0.12340000</i>
   <i name="PARAM2">      1.00000000</i>
   <i name="PARAM3">      0.00000000</i>
  </separator>
  <separator name="model GW" >
   <i type="int" name="MODEL_GW">     0</i>
   <i name="MODEL_EPS0">      7.11568920</i>
   <i name="MODEL_ALPHA">      1.00000000</i>
  </separator>
  <separator name="linear response parameters" >
   <i type="logical" name="LEPSILON"> F  </i>
   <i type="logical" name="LRPA"> F  </i>
   <i type="logical" name="LNABLA"> F  </i>
   <i type="logical" name="LVEL"> F  </i>
   <i type="int" name="KINTER">     0</i>
   <i name="CSHIFT">      0.10000000</i>
   <i name="OMEGAMAX">     -1.00000000</i>
   <i name="DEG_THRESHOLD">      0.00200000</i>
  </separator>
  <separator name="orbital magnetization" >
   <i type="logical" name="NUCIND"> F  </i>
   <v name="MAGPOS">      0.00000000      0.00000000      0.00000000</v>
   <i type="logical" name="LNICSALL"> T  </i>
   <i type="logical" name="ORBITALMAG"> F  </i>
   <i type="logical" name="LMAGBLOCH"> F  </i>
   <i type="logical" name="LCHIMAG"> F  </i>
   <i type="logical" name="LGAUGE"> T  </i>
   <i type="int" name="MAGATOM">     0</i>
   <v name="MAGDIPOL">      0.00000000      0.00000000      0.00000000</v>
   <v name="AVECCONST">      0.00000000      0.00000000      0.00000000</v>
  </separator>
  <separator name="response functions" >
   <i type="logical" name="LADDER"> F  </i>
   <i type="logical" name="LHARTREE"> T  </i>
   <i type="int" name="IBSE">     0</i>
   <i type="logical" name="LTCTE"> F  </i>
   <i type="logical" name="LTETE"> F  </i>
   <i type="logical" name="LTRIPLET"> F  </i>
   <i type="logical" name="LFXCEPS"> F  </i>
   <i type="logical" name="L2ORDER"> F  </i>
   <i type="logical" name="LUSEW"> F  </i>
   <i name="ENCUTGW">     -2.00000000</i>
   <i name="ENCUTGWSOFT">     -2.00000000</i>
   <i name="ENCUTLF">     -1.00000000</i>
   <i type="int" name="LMAXMP2">    -1</i>
   <i name="SCISSOR">      0.00000000</i>
   <i type="int" name="NOMEGA">     0</i>
   <i type="int" name="NOMEGAR">     0</i>
   <i type="int" name="NBANDSGW">    -1</i>
   <i type="int" name="NBANDSO">    -1</i>
   <i type="int" name="NBANDSV">    -1</i>
   <i type="int" name="NELM">     1</i>
   <i type="int" name="DIM">     3</i>
   <i type="int" name="ANTIRES">     0</i>
   <i name="OMEGAMAX">    -30.00000000</i>
   <i name="OMEGATL">   -200.00000000</i>
   <i type="int" name="OMEGAGRID">     0</i>
   <i name="CSHIFT">     -0.10000000</i>
   <i type="logical" name="SELFENERGY"> F  </i>
   <i type="logical" name="LSPECTRAL"> F  </i>
   <i type="logical" name="ODDONLYGW"> F  </i>
   <i type="logical" name="EVENONLYGW"> F  </i>
   <i type="int" name="NKREDLFX">     1</i>
   <i type="int" name="NKREDLFY">     1</i>
   <i type="int" name="NKREDLFZ">     1</i>
   <i type="int" name="MAXMEM">  1800</i>
   <i type="int" name="TELESCOPE">     0</i>
  </separator>
 </parameters>
 <atominfo>
  <atoms>       1 </atoms>
  <types>       1 </types>
  <array name="atoms" >
   <dimension dim="1">ion</dimension>
   <field type="string">element</field>
   <field type="int">atomtype</field>
   <set>
    <rc><c>Cu</c><c>   1</c></rc>
   </set>
  </array>
  <array name="atomtypes" >
   <dimension dim="1">type</dimension>
   <field type="int">atomspertype</field>
   <field type="string">element</field>
   <field>mass</field>
   <field>valence</field>
   <field type="string">pseudopotential</field>
   <set>
    <rc><c>   1</c><c>Cu</c><c>     63.54600000</c><c>     11.00000000</c><c>  PAW_PBE Cu 22Jun2005                  </c></rc>
   </set>
  </array>
 </atominfo>
 <structure name="initialpos" >
  <crystal>
   <varray name="basis" >
    <v>       1.81000000       1.81000000       0.00000000 </v>
    <v>       0.00000000       1.81000000       1.81000000 </v>
    <v>       1.81000000       0.00000000       1.81000000 </v>
   </varray>
   <i name="volume">     11.85948200 </i>
   <varray name="rec_basis" >
    <v>       0.27624309       0.27624309      -0.27624309 </v>
    <v>      -0.27624309       0.27624309       0.27624309 </v>
    <v>       0.27624309      -0.27624309       0.27624309 </v>
   </varray>
  </crystal>
  <varray name="positions" >
   <v>       0.00000000       0.00000000       0.00000000 </v>
  </varray>
 </structure>
 <calculation>
  <scstep>
   <time name="dav">    2.10    2.19</time>
   <time name="total">    2.18    2.31</time>
   <energy>
    <i name="alphaZ">     61.66610287 </i>
    <i name="ewald">  -1103.39027675 </i>
    <i name="hartreedc">   -338.17460827 </i>
    <i name="XCdc">     45.39445183 </i>
    <i name="pawpsdc">   1317.14621761 </i>
    <i name="pawaedc">  -1424.80450175 </i>
    <i name="eentropy">      0.00062481 </i>
    <i name="bandstr">     83.75396632 </i>
    <i name="atom">   1390.30410994 </i>
    <i name="e_fr_energy">     31.89608660 </i>
    <i name="e_wo_entrp">     31.89546179 </i>
    <i name="e_0_energy">     31.89587833 </i>
   </energy>
  </scstep>
  <scstep>
   <time name="dav">    2.26    2.29</time>
   <time name="total">    2.27    2.30</time>
   <energy>
    <i name="e_fr_energy">     -6.30544198 </i>
    <i name="e_wo_entrp">     -6.31096924 </i>
    <i name="e_0_energy">     -6.30728440 </i>
   </energy>
  </scstep>
  <scstep>
   <time name="dav">    2.68    2.71</time>
   <time name="total">    2.69    2.74</time>
   <energy>
    <i name="e_fr_energy">     -6.70168701 </i>
    <i name="e_wo_entrp">     -6.70636190 </i>
    <i name="e_0_energy">     -6.70324531 </i>
   </energy>
  </scstep>
  <scstep>
   <time name="dav">    2.98    3.03</time>
   <time name="total">    2.99    3.06</time>
   <energy>
    <i name="e_fr_energy">     -6.70416132 </i>
    <i name="e_wo_entrp">     -6.70883488 </i>
    <i name="e_0_energy">     -6.70571917 </i>
   </energy>
  </scstep>
  <scstep>
   <time name="dav">    2.61    2.67</time>
   <time name="total">    2.62    2.69</time>
   <energy>
    <i name="e_fr_energy">     -6.70418388 </i>
    <i name="e_wo_entrp">     -6.70885749 </i>
    <i name="e_0_energy">     -6.70574175 </i>
   </energy>
  </scstep>
  <scstep>
   <time name="dav">    2.40    2.42</time>
   <time name="total">    2.42    2.45</time>
   <energy>
    <i name="alphaZ">     61.66610287 </i>
    <i name="ewald">  -1103.39027675 </i>
    <i name="hartreedc">   -338.17460827 </i>
    <i name="XCdc">     45.39445183 </i>
    <i name="pawpsdc">   1317.14621761 </i>
    <i name="pawaedc">  -1424.80450175 </i>
    <i name="eentropy">      0.00467360 </i>
    <i name="bandstr">     45.14964655 </i>
    <i name="atom">   1390.30410994 </i>
    <i name="e_fr_energy">     -6.70418437 </i>
    <i name="e_wo_entrp">     -6.70885797 </i>
    <i name="e_0_energy">     -6.70574224 </i>
   </energy>
  </scstep>
  <structure>
   <crystal>
    <varray name="basis" >
     <v>       1.81000000       1.81000000       0.00000000 </v>
     <v>       0.00000000       1.81000000       1.81000000 </v>
     <v>       1.81000000       0.00000000       1.81000000 </v>
    </varray>
    <i name="volume">     11.85948200 </i>
    <varray name="rec_basis" >
     <v>       0.27624309       0.27624309      -0.27624309 </v>
     <v>      -0.27624309       0.27624309       0.27624309 </v>
     <v>       0.27624309      -0.27624309       0.27624309 </v>
    </varray>
   </crystal>
   <varray name="positions" >
    <v>       0.00000000       0.00000000       0.00000000 </v>
   </varray>
  </structure>
  <varray name="forces" >
   <v>       0.00000000       0.00000000       0.00000000 </v>
  </varray>
  <varray name="stress" >
   <v>    1509.76689864       0.00000000       0.00000000 </v>
   <v>       0.00000000    1509.76689864       0.00000000 </v>
   <v>       0.00000000       0.00000000    1509.76689864 </v>
  </varray>
  <energy>
   <i name="e_fr_energy">     -6.70418437 </i>
   <i name="e_wo_entrp">     -6.70574224 </i>
   <i name="e_0_energy">      0.00467360 </i>
  </energy>
  <time name="totalsc">   16.43   17.08</time>
  <eigenvalues>
   <array>
    <dimension dim="1">band</dimension>
    <dimension dim="2">kpoint</dimension>
    <dimension dim="3">spin</dimension>
    <field>eigene</field>
    <field>occ</field>
    <set>
     <set comment="spin 1">
      <set comment="kpoint 1">
       <r>    2.2839    1.0000 </r>
       <r>    4.3021    1.0000 </r>
       <r>    4.3021    1.0000 </r>
       <r>    5.7253    1.0277 </r>
       <r>    5.7253    1.0277 </r>
       <r>    6.3216   -0.0092 </r>
       <r>   11.0667    0.0000 </r>
       <r>   28.3935    0.0000 </r>
       <r>   29.2973    0.0000 </r>
      </set>
      <set comment="kpoint 2">
       <r>    2.2804    1.0000 </r>
       <r>    4.3029    1.0000 </r>
       <r>    4.3029    1.0000 </r>
       <r>    5.7235    1.0285 </r>
       <r>    5.7235    1.0285 </r>
       <r>    6.2891   -0.0147 </r>
       <r>   11.1140    0.0000 </r>
       <r>   28.3981    0.0000 </r>
       <r>   29.2986    0.0000 </r>
      </set>
      <set comment="kpoint 3">
       <r>    2.2699    1.0000 </r>
       <r>    4.3053    1.0000 </r>
       <r>    4.3053    1.0000 </r>
       <r>    5.7179    1.0306 </r>
       <r>    5.7179    1.0306 </r>
       <r>    6.1960   -0.0341 </r>
       <r>   11.2521    0.0000 </r>
       <r>   28.4120    0.0000 </r>
       <r>   29.3023    0.0000 </r>
      </set>
      <set comment="kpoint 4">
       <r>    2.2518    1.0000 </r>
       <r>    4.3092    1.0000 </r>
       <r>    4.3092    1.0000 </r>
       <r>    5.7087    1.0331 </r>
       <r>    5.7087    1.0331 </r>
       <r>    6.0530    0.0749 </r>
       <r>   11.4704    0.0000 </r>
       <r>   28.4351    0.0000 </r>
       <r>   29.3088    0.0000 </r>
      </set>
      <set comment="kpoint 5">
       <r>    2.2251    1.0000 </r>
       <r>    4.3149    1.0000 </r>
       <r>    4.3149    1.0000 </r>
       <r>    5.6961    1.0350 </r>
       <r>    5.6961    1.0350 </r>
       <r>    5.8744    0.7284 </r>
       <r>   11.7559    0.0000 </r>
       <r>   28.4671    0.0000 </r>
       <r>   29.3181    0.0000 </r>
      </set>
      <set comment="kpoint 6">
       <r>    2.1887    1.0000 </r>
       <r>    4.3219    1.0000 </r>
       <r>    4.3219    1.0000 </r>
       <r>    5.6738    1.0349 </r>
       <r>    5.6801    1.0353 </r>
       <r>    5.6801    1.0353 </r>
       <r>   12.0958    0.0000 </r>
       <r>   28.5078    0.0000 </r>
       <r>   29.3308    0.0000 </r>
      </set>
      <set comment="kpoint 7">
       <r>    2.1407    1.0000 </r>
       <r>    4.3302    1.0000 </r>
       <r>    4.3302    1.0000 </r>
       <r>    5.4634    1.0023 </r>
       <r>    5.6607    1.0334 </r>
       <r>    5.6607    1.0334 </r>
       <r>   12.4797    0.0000 </r>
       <r>   28.5572    0.0000 </r>
       <r>   29.3466    0.0000 </r>
      </set>
      <set comment="kpoint 8">
       <r>    2.0794    1.0000 </r>
       <r>    4.3398    1.0000 </r>
       <r>    4.3398    1.0000 </r>
       <r>    5.2534    1.0000 </r>
       <r>    5.6381    1.0293 </r>
       <r>    5.6381    1.0293 </r>
       <r>   12.8991    0.0000 </r>
       <r>   28.6153    0.0000 </r>
       <r>   29.3663    0.0000 </r>
      </set>
      <set comment="kpoint 9">
       <r>    2.0029    1.0000 </r>
       <r>    4.3506    1.0000 </r>
       <r>    4.3506    1.0000 </r>
       <r>    5.0517    1.0000 </r>
       <r>    5.6129    1.0236 </r>
       <r>    5.6129    1.0236 </r>
       <r>   13.3479    0.0000 </r>
       <r>   28.6799    0.0000 </r>
       <r>   29.3902    0.0000 </r>
      </set>
      <set comment="kpoint 10">
       <r>    1.9095    1.0000 </r>
       <r>    4.3624    1.0000 </r>
       <r>    4.3624    1.0000 </r>
       <r>    4.8648    1.0000 </r>
       <r>    5.5851    1.0173 </r>
       <r>    5.5851    1.0173 </r>
       <r>   13.8213    0.0000 </r>
       <r>   28.7526    0.0000 </r>
       <r>   29.4187    0.0000 </r>
      </set>
      <set comment="kpoint 11">
       <r>    1.7980    1.0000 </r>
       <r>    4.3751    1.0000 </r>
       <r>    4.3751    1.0000 </r>
       <r>    4.6970    1.0000 </r>
       <r>    5.5552    1.0116 </r>
       <r>    5.5552    1.0116 </r>
       <r>   14.3158    0.0000 </r>
       <r>   28.8325    0.0000 </r>
       <r>   29.4519    0.0000 </r>
      </set>
      <set comment="kpoint 12">
       <r>    1.6680    1.0000 </r>
       <r>    4.3885    1.0000 </r>
       <r>    4.3885    1.0000 </r>
       <r>    4.5512    1.0000 </r>
       <r>    5.5233    1.0071 </r>
       <r>    5.5233    1.0071 </r>
       <r>   14.8288    0.0000 </r>
       <r>   28.9186    0.0000 </r>
       <r>   29.4904    0.0000 </r>
      </set>
      <set comment="kpoint 13">
       <r>    1.5204    1.0000 </r>
       <r>    4.4024    1.0000 </r>
       <r>    4.4024    1.0000 </r>
       <r>    4.4286    1.0000 </r>
       <r>    5.4900    1.0039 </r>
       <r>    5.4900    1.0039 </r>
       <r>   15.3582    0.0000 </r>
       <r>   29.0157    0.0000 </r>
       <r>   29.5341    0.0000 </r>
      </set>
      <set comment="kpoint 14">
       <r>    1.3570    1.0000 </r>
       <r>    4.3286    1.0000 </r>
       <r>    4.4165    1.0000 </r>
       <r>    4.4165    1.0000 </r>
       <r>    5.4556    1.0020 </r>
       <r>    5.4556    1.0020 </r>
       <r>   15.9023    0.0000 </r>
       <r>   29.1047    0.0000 </r>
       <r>   29.5835    0.0000 </r>
      </set>
      <set comment="kpoint 15">
       <r>    1.1805    1.0000 </r>
       <r>    4.2496    1.0000 </r>
       <r>    4.4307    1.0000 </r>
       <r>    4.4307    1.0000 </r>
       <r>    5.4205    1.0009 </r>
       <r>    5.4205    1.0009 </r>
       <r>   16.4599    0.0000 </r>
       <r>   29.2050    0.0000 </r>
       <r>   29.6388    0.0000 </r>
      </set>
      <set comment="kpoint 16">
       <r>    0.9939    1.0000 </r>
       <r>    4.1896    1.0000 </r>
       <r>    4.4446    1.0000 </r>
       <r>    4.4446    1.0000 </r>
       <r>    5.3853    1.0004 </r>
       <r>    5.3853    1.0004 </r>
       <r>   17.0299    0.0000 </r>
       <r>   29.3056    0.0000 </r>
       <r>   29.7001    0.0000 </r>
      </set>
      <set comment="kpoint 17">
       <r>    0.8004    1.0000 </r>
       <r>    4.1457    1.0000 </r>
       <r>    4.4578    1.0000 </r>
       <r>    4.4578    1.0000 </r>
       <r>    5.3503    1.0002 </r>
       <r>    5.3503    1.0002 </r>
       <r>   17.6114    0.0000 </r>
       <r>   29.4105    0.0000 </r>
       <r>   29.7676    0.0000 </r>
      </set>
      <set comment="kpoint 18">
       <r>    0.6030    1.0000 </r>
       <r>    4.1156    1.0000 </r>
       <r>    4.4700    1.0000 </r>
       <r>    4.4700    1.0000 </r>
       <r>    5.3159    1.0001 </r>
       <r>    5.3159    1.0001 </r>
       <r>   18.2037    0.0000 </r>
       <r>   29.5422    0.0000 </r>
       <r>   29.8414    0.0000 </r>
      </set>
      <set comment="kpoint 19">
       <r>    0.4043    1.0000 </r>
       <r>    4.0970    1.0000 </r>
       <r>    4.4808    1.0000 </r>
       <r>    4.4808    1.0000 </r>
       <r>    5.2832    1.0000 </r>
       <r>    5.2832    1.0000 </r>
       <r>   18.8061    0.0000 </r>
       <r>   29.6206    0.0000 </r>
       <r>   29.9217    0.0000 </r>
      </set>
      <set comment="kpoint 20">
       <r>    0.2065    1.0000 </r>
       <r>    4.0877    1.0000 </r>
       <r>    4.4899    1.0000 </r>
       <r>    4.4899    1.0000 </r>
       <r>    5.2525    1.0000 </r>
       <r>    5.2525    1.0000 </r>
       <r>   19.4180    0.0000 </r>
       <r>   29.7260    0.0000 </r>
       <r>   30.0085    0.0000 </r>
      </set>
      <set comment="kpoint 21">
       <r>    0.0117    1.0000 </r>
       <r>    4.0862    1.0000 </r>
       <r>    4.4967    1.0000 </r>
       <r>    4.4967    1.0000 </r>
       <r>    5.2241    1.0000 </r>
       <r>    5.2241    1.0000 </r>
       <r>   20.0388    0.0000 </r>
       <r>   29.8230    0.0000 </r>
       <r>   30.1019    0.0000 </r>
      </set>
      <set comment="kpoint 22">
       <r>   -0.1785    1.0000 </r>
       <r>    4.0907    1.0000 </r>
       <r>    4.5010    1.0000 </r>
       <r>    4.5010    1.0000 </r>
       <r>    5.1989    1.0000 </r>
       <r>    5.1989    1.0000 </r>
       <r>   20.6679    0.0000 </r>
       <r>   29.9300    0.0000 </r>
       <r>   30.2020    0.0000 </r>
      </set>
      <set comment="kpoint 23">
       <r>   -0.3629    1.0000 </r>
       <r>    4.0997    1.0000 </r>
       <r>    4.5023    1.0000 </r>
       <r>    4.5023    1.0000 </r>
       <r>    5.1769    1.0000 </r>
       <r>    5.1769    1.0000 </r>
       <r>   21.3048    0.0000 </r>
       <r>   30.0148    0.0000 </r>
       <r>   30.3087    0.0000 </r>
      </set>
      <set comment="kpoint 24">
       <r>   -0.5404    1.0000 </r>
       <r>    4.1127    1.0000 </r>
       <r>    4.5007    1.0000 </r>
       <r>    4.5007    1.0000 </r>
       <r>    5.1588    1.0000 </r>
       <r>    5.1588    1.0000 </r>
       <r>   21.9488    0.0000 </r>
       <r>   30.1040    0.0000 </r>
       <r>   30.4221    0.0000 </r>
      </set>
      <set comment="kpoint 25">
       <r>   -0.7100    1.0000 </r>
       <r>    4.1287    1.0000 </r>
       <r>    4.4960    1.0000 </r>
       <r>    4.4960    1.0000 </r>
       <r>    5.1446    1.0000 </r>
       <r>    5.1446    1.0000 </r>
       <r>   22.5994    0.0000 </r>
       <r>   30.1776    0.0000 </r>
       <r>   30.5421    0.0000 </r>
      </set>
      <set comment="kpoint 26">
       <r>   -0.8711    1.0000 </r>
       <r>    4.1466    1.0000 </r>
       <r>    4.4884    1.0000 </r>
       <r>    4.4884    1.0000 </r>
       <r>    5.1341    1.0000 </r>
       <r>    5.1341    1.0000 </r>
       <r>   23.2556    0.0000 </r>
       <r>   30.2513    0.0000 </r>
       <r>   30.6686    0.0000 </r>
      </set>
      <set comment="kpoint 27">
       <r>   -1.0229    1.0000 </r>
       <r>    4.1662    1.0000 </r>
       <r>    4.4782    1.0000 </r>
       <r>    4.4782    1.0000 </r>
       <r>    5.1272    1.0000 </r>
       <r>    5.1272    1.0000 </r>
       <r>   23.9165    0.0000 </r>
       <r>   30.3211    0.0000 </r>
       <r>   30.8014    0.0000 </r>
      </set>
      <set comment="kpoint 28">
       <r>   -1.1651    1.0000 </r>
       <r>    4.1860    1.0000 </r>
       <r>    4.4660    1.0000 </r>
       <r>    4.4660    1.0000 </r>
       <r>    5.1233    1.0000 </r>
       <r>    5.1233    1.0000 </r>
       <r>   24.5808    0.0000 </r>
       <r>   30.3816    0.0000 </r>
       <r>   30.9403    0.0000 </r>
      </set>
      <set comment="kpoint 29">
       <r>   -1.2971    1.0000 </r>
       <r>    4.2063    1.0000 </r>
       <r>    4.4522    1.0000 </r>
       <r>    4.4522    1.0000 </r>
       <r>    5.1221    1.0000 </r>
       <r>    5.1221    1.0000 </r>
       <r>   25.2466    0.0000 </r>
       <r>   30.4422    0.0000 </r>
       <r>   31.0848    0.0000 </r>
      </set>
      <set comment="kpoint 30">
       <r>   -1.4186    1.0000 </r>
       <r>    4.2263    1.0000 </r>
       <r>    4.4375    1.0000 </r>
       <r>    4.4375    1.0000 </r>
       <r>    5.1230    1.0000 </r>
       <r>    5.1230    1.0000 </r>
       <r>   25.9116    0.0000 </r>
       <r>   30.4955    0.0000 </r>
       <r>   31.2343    0.0000 </r>
      </set>
      <set comment="kpoint 31">
       <r>   -1.5293    1.0000 </r>
       <r>    4.2456    1.0000 </r>
       <r>    4.4225    1.0000 </r>
       <r>    4.4225    1.0000 </r>
       <r>    5.1254    1.0000 </r>
       <r>    5.1254    1.0000 </r>
       <r>   26.5716    0.0000 </r>
       <r>   30.5515    0.0000 </r>
       <r>   31.3881    0.0000 </r>
      </set>
      <set comment="kpoint 32">
       <r>   -1.6290    1.0000 </r>
       <r>    4.2639    1.0000 </r>
       <r>    4.4078    1.0000 </r>
       <r>    4.4078    1.0000 </r>
       <r>    5.1291    1.0000 </r>
       <r>    5.1291    1.0000 </r>
       <r>   27.2206    0.0000 </r>
       <r>   30.6145    0.0000 </r>
       <r>   31.5450    0.0000 </r>
      </set>
      <set comment="kpoint 33">
       <r>   -1.7174    1.0000 </r>
       <r>    4.2808    1.0000 </r>
       <r>    4.3936    1.0000 </r>
       <r>    4.3936    1.0000 </r>
       <r>    5.1331    1.0000 </r>
       <r>    5.1331    1.0000 </r>
       <r>   27.8481    0.0000 </r>
       <r>   30.6929    0.0000 </r>
       <r>   31.7034    0.0000 </r>
      </set>
      <set comment="kpoint 34">
       <r>   -1.7943    1.0000 </r>
       <r>    4.2960    1.0000 </r>
       <r>    4.3806    1.0000 </r>
       <r>    4.3806    1.0000 </r>
       <r>    5.1373    1.0000 </r>
       <r>    5.1373    1.0000 </r>
       <r>   28.4355    0.0000 </r>
       <r>   30.8029    0.0000 </r>
       <r>   31.8608    0.0000 </r>
      </set>
      <set comment="kpoint 35">
       <r>   -1.8597    1.0000 </r>
       <r>    4.3093    1.0000 </r>
       <r>    4.3690    1.0000 </r>
       <r>    4.3690    1.0000 </r>
       <r>    5.1414    1.0000 </r>
       <r>    5.1414    1.0000 </r>
       <r>   28.9526    0.0000 </r>
       <r>   30.9707    0.0000 </r>
       <r>   32.0138    0.0000 </r>
      </set>
      <set comment="kpoint 36">
       <r>   -1.9133    1.0000 </r>
       <r>    4.3204    1.0000 </r>
       <r>    4.3592    1.0000 </r>
       <r>    4.3592    1.0000 </r>
       <r>    5.1451    1.0000 </r>
       <r>    5.1451    1.0000 </r>
       <r>   29.3598    0.0000 </r>
       <r>   31.2283    0.0000 </r>
       <r>   32.1575    0.0000 </r>
      </set>
      <set comment="kpoint 37">
       <r>   -1.9551    1.0000 </r>
       <r>    4.3293    1.0000 </r>
       <r>    4.3513    1.0000 </r>
       <r>    4.3513    1.0000 </r>
       <r>    5.1485    1.0000 </r>
       <r>    5.1485    1.0000 </r>
       <r>   29.6348    0.0000 </r>
       <r>   31.5825    0.0000 </r>
       <r>   32.2852    0.0000 </r>
      </set>
      <set comment="kpoint 38">
       <r>   -1.9850    1.0000 </r>
       <r>    4.3357    1.0000 </r>
       <r>    4.3456    1.0000 </r>
       <r>    4.3456    1.0000 </r>
       <r>    5.1508    1.0000 </r>
       <r>    5.1508    1.0000 </r>
       <r>   29.7950    0.0000 </r>
       <r>   31.9923    0.0000 </r>
       <r>   32.3878    0.0000 </r>
      </set>
      <set comment="kpoint 39">
       <r>   -2.0029    1.0000 </r>
       <r>    4.3396    1.0000 </r>
       <r>    4.3421    1.0000 </r>
       <r>    4.3421    1.0000 </r>
       <r>    5.1522    1.0000 </r>
       <r>    5.1522    1.0000 </r>
       <r>   29.8751    0.0000 </r>
       <r>   32.3362    0.0000 </r>
       <r>   32.4555    0.0000 </r>
      </set>
      <set comment="kpoint 40">
       <r>   -2.0089    1.0000 </r>
       <r>    4.3409    1.0000 </r>
       <r>    4.3409    1.0000 </r>
       <r>    4.3409    1.0000 </r>
       <r>    5.1527    1.0000 </r>
       <r>    5.1527    1.0000 </r>
       <r>   29.8992    0.0000 </r>
       <r>   32.4789    0.0000 </r>
       <r>   32.4790    0.0000 </r>
      </set>
      <set comment="kpoint 41">
       <r>   -2.0089    1.0000 </r>
       <r>    4.3409    1.0000 </r>
       <r>    4.3409    1.0000 </r>
       <r>    4.3409    1.0000 </r>
       <r>    5.1527    1.0000 </r>
       <r>    5.1527    1.0000 </r>
       <r>   29.8992    0.0000 </r>
       <r>   32.4789    0.0000 </r>
       <r>   32.4810    0.0000 </r>
      </set>
      <set comment="kpoint 42">
       <r>   -2.0009    1.0000 </r>
       <r>    4.3385    1.0000 </r>
       <r>    4.3428    1.0000 </r>
       <r>    4.3428    1.0000 </r>
       <r>    5.1505    1.0000 </r>
       <r>    5.1536    1.0000 </r>
       <r>   29.8682    0.0000 </r>
       <r>   32.3657    0.0000 </r>
       <r>   32.4382    0.0000 </r>
      </set>
      <set comment="kpoint 43">
       <r>   -1.9770    1.0000 </r>
       <r>    4.3314    1.0000 </r>
       <r>    4.3485    1.0000 </r>
       <r>    4.3485    1.0000 </r>
       <r>    5.1441    1.0000 </r>
       <r>    5.1562    1.0000 </r>
       <r>   29.7785    0.0000 </r>
       <r>   32.0738    0.0000 </r>
       <r>   32.1684    0.0000 </r>
      </set>
      <set comment="kpoint 44">
       <r>   -1.9371    1.0000 </r>
       <r>    4.3195    1.0000 </r>
       <r>    4.3578    1.0000 </r>
       <r>    4.3578    1.0000 </r>
       <r>    5.1330    1.0000 </r>
       <r>    5.1605    1.0000 </r>
       <r>   29.6391    0.0000 </r>
       <r>   31.6822    0.0000 </r>
       <r>   31.7574    0.0000 </r>
      </set>
      <set comment="kpoint 45">
       <r>   -1.8814    1.0000 </r>
       <r>    4.3031    1.0000 </r>
       <r>    4.3710    1.0000 </r>
       <r>    4.3710    1.0000 </r>
       <r>    5.1182    1.0000 </r>
       <r>    5.1665    1.0000 </r>
       <r>   29.4621    0.0000 </r>
       <r>   31.2414    0.0000 </r>
       <r>   31.3033    0.0000 </r>
      </set>
      <set comment="kpoint 46">
       <r>   -1.8100    1.0000 </r>
       <r>    4.2822    1.0000 </r>
       <r>    4.3879    1.0000 </r>
       <r>    4.3879    1.0000 </r>
       <r>    5.0993    1.0000 </r>
       <r>    5.1741    1.0000 </r>
       <r>   29.2565    0.0000 </r>
       <r>   30.7769    0.0000 </r>
       <r>   30.8145    0.0000 </r>
      </set>
      <set comment="kpoint 47">
       <r>   -1.7231    1.0000 </r>
       <r>    4.2569    1.0000 </r>
       <r>    4.4085    1.0000 </r>
       <r>    4.4085    1.0000 </r>
       <r>    5.0768    1.0000 </r>
       <r>    5.1834    1.0000 </r>
       <r>   29.0342    0.0000 </r>
       <r>   30.3017    0.0000 </r>
       <r>   30.3022    0.0000 </r>
      </set>
      <set comment="kpoint 48">
       <r>   -1.6207    1.0000 </r>
       <r>    4.2275    1.0000 </r>
       <r>    4.4327    1.0000 </r>
       <r>    4.4327    1.0000 </r>
       <r>    5.0508    1.0000 </r>
       <r>    5.1942    1.0000 </r>
       <r>   28.8018    0.0000 </r>
       <r>   29.8227    0.0000 </r>
       <r>   29.8233    0.0000 </r>
      </set>
      <set comment="kpoint 49">
       <r>   -1.5032    1.0000 </r>
       <r>    4.1941    1.0000 </r>
       <r>    4.4605    1.0000 </r>
       <r>    4.4605    1.0000 </r>
       <r>    5.0216    1.0000 </r>
       <r>    5.2065    1.0000 </r>
       <r>   28.5650    0.0000 </r>
       <r>   29.3441    0.0000 </r>
       <r>   29.3444    0.0000 </r>
      </set>
      <set comment="kpoint 50">
       <r>   -1.3709    1.0000 </r>
       <r>    4.1571    1.0000 </r>
       <r>    4.4917    1.0000 </r>
       <r>    4.4917    1.0000 </r>
       <r>    4.9896    1.0000 </r>
       <r>    5.2200    1.0000 </r>
       <r>   28.3280    0.0000 </r>
       <r>   28.8686    0.0000 </r>
       <r>   28.8686    0.0000 </r>
      </set>
      <set comment="kpoint 51">
       <r>   -1.2241    1.0000 </r>
       <r>    4.1167    1.0000 </r>
       <r>    4.5264    1.0000 </r>
       <r>    4.5264    1.0000 </r>
       <r>    4.9555    1.0000 </r>
       <r>    5.2350    1.0000 </r>
       <r>   28.0938    0.0000 </r>
       <r>   28.3979    0.0000 </r>
       <r>   28.3979    0.0000 </r>
      </set>
      <set comment="kpoint 52">
       <r>   -1.0632    1.0000 </r>
       <r>    4.0732    1.0000 </r>
       <r>    4.5645    1.0000 </r>
       <r>    4.5645    1.0000 </r>
       <r>    4.9198    1.0000 </r>
       <r>    5.2513    1.0000 </r>
       <r>   27.8646    0.0000 </r>
       <r>   27.9334    0.0000 </r>
       <r>   27.9335    0.0000 </r>
      </set>
      <set comment="kpoint 53">
       <r>   -0.8888    1.0000 </r>
       <r>    4.0269    1.0000 </r>
       <r>    4.6057    1.0000 </r>
       <r>    4.6057    1.0000 </r>
       <r>    4.8830    1.0000 </r>
       <r>    5.2687    1.0000 </r>
       <r>   27.4762    0.0000 </r>
       <r>   27.4768    0.0000 </r>
       <r>   27.6423    0.0000 </r>
      </set>
      <set comment="kpoint 54">
       <r>   -0.7016    1.0000 </r>
       <r>    3.9782    1.0000 </r>
       <r>    4.6500    1.0000 </r>
       <r>    4.6500    1.0000 </r>
       <r>    4.8460    1.0000 </r>
       <r>    5.2871    1.0000 </r>
       <r>   27.0271    0.0000 </r>
       <r>   27.0271    0.0000 </r>
       <r>   27.4270    0.0000 </r>
      </set>
      <set comment="kpoint 55">
       <r>   -0.5023    1.0000 </r>
       <r>    3.9273    1.0000 </r>
       <r>    4.6972    1.0000 </r>
       <r>    4.6972    1.0000 </r>
       <r>    4.8099    1.0000 </r>
       <r>    5.3064    1.0000 </r>
       <r>   26.5870    0.0000 </r>
       <r>   26.5870    0.0000 </r>
       <r>   27.2199    0.0000 </r>
      </set>
      <set comment="kpoint 56">
       <r>   -0.2920    1.0000 </r>
       <r>    3.8747    1.0000 </r>
       <r>    4.7475    1.0000 </r>
       <r>    4.7475    1.0000 </r>
       <r>    4.7758    1.0000 </r>
       <r>    5.3266    1.0001 </r>
       <r>   26.1564    0.0000 </r>
       <r>   26.1564    0.0000 </r>
       <r>   27.0219    0.0000 </r>
      </set>
      <set comment="kpoint 57">
       <r>   -0.0719    1.0000 </r>
       <r>    3.8206    1.0000 </r>
       <r>    4.7453    1.0000 </r>
       <r>    4.8000    1.0000 </r>
       <r>    4.8000    1.0000 </r>
       <r>    5.3474    1.0001 </r>
       <r>   25.7361    0.0000 </r>
       <r>   25.7361    0.0000 </r>
       <r>   26.8337    0.0000 </r>
      </set>
      <set comment="kpoint 58">
       <r>    0.1565    1.0000 </r>
       <r>    3.7655    1.0000 </r>
       <r>    4.7195    1.0000 </r>
       <r>    4.8547    1.0000 </r>
       <r>    4.8547    1.0000 </r>
       <r>    5.3687    1.0003 </r>
       <r>   25.3266    0.0000 </r>
       <r>   25.3266    0.0000 </r>
       <r>   26.6546    0.0000 </r>
      </set>
      <set comment="kpoint 59">
       <r>    0.3912    1.0000 </r>
       <r>    3.7098    1.0000 </r>
       <r>    4.7012    1.0000 </r>
       <r>    4.9115    1.0000 </r>
       <r>    4.9115    1.0000 </r>
       <r>    5.3905    1.0004 </r>
       <r>   24.9286    0.0000 </r>
       <r>   24.9286    0.0000 </r>
       <r>   26.4911    0.0000 </r>
      </set>
      <set comment="kpoint 60">
       <r>    0.6297    1.0000 </r>
       <r>    3.6538    1.0000 </r>
       <r>    4.6929    1.0000 </r>
       <r>    4.9702    1.0000 </r>
       <r>    4.9702    1.0000 </r>
       <r>    5.4124    1.0008 </r>
       <r>   24.5427    0.0000 </r>
       <r>   24.5427    0.0000 </r>
       <r>   25.9926    0.0000 </r>
      </set>
      <set comment="kpoint 61">
       <r>    0.8688    1.0000 </r>
       <r>    3.5978    1.0000 </r>
       <r>    4.6977    1.0000 </r>
       <r>    5.0303    1.0000 </r>
       <r>    5.0303    1.0000 </r>
       <r>    5.4345    1.0013 </r>
       <r>   24.1695    0.0000 </r>
       <r>   24.1695    0.0000 </r>
       <r>   25.2642    0.0000 </r>
      </set>
      <set comment="kpoint 62">
       <r>    1.1047    1.0000 </r>
       <r>    3.5423    1.0000 </r>
       <r>    4.7197    1.0000 </r>
       <r>    5.0916    1.0000 </r>
       <r>    5.0916    1.0000 </r>
       <r>    5.4566    1.0020 </r>
       <r>   23.8095    0.0000 </r>
       <r>   23.8095    0.0000 </r>
       <r>   24.5578    0.0000 </r>
      </set>
      <set comment="kpoint 63">
       <r>    1.3327    1.0000 </r>
       <r>    3.4876    1.0000 </r>
       <r>    4.7635    1.0000 </r>
       <r>    5.1537    1.0000 </r>
       <r>    5.1537    1.0000 </r>
       <r>    5.4785    1.0031 </r>
       <r>   23.4635    0.0000 </r>
       <r>   23.4635    0.0000 </r>
       <r>   23.8269    0.0000 </r>
      </set>
      <set comment="kpoint 64">
       <r>    1.5476    1.0000 </r>
       <r>    3.4340    1.0000 </r>
       <r>    4.8344    1.0000 </r>
       <r>    5.2162    1.0000 </r>
       <r>    5.2162    1.0000 </r>
       <r>    5.5000    1.0047 </r>
       <r>   23.0981    0.0000 </r>
       <r>   23.1320    0.0000 </r>
       <r>   23.1320    0.0000 </r>
      </set>
      <set comment="kpoint 65">
       <r>    1.7440    1.0000 </r>
       <r>    3.3819    1.0000 </r>
       <r>    4.9375    1.0000 </r>
       <r>    5.2786    1.0000 </r>
       <r>    5.2786    1.0000 </r>
       <r>    5.5211    1.0068 </r>
       <r>   22.3701    0.0000 </r>
       <r>   22.8158    0.0000 </r>
       <r>   22.8158    0.0000 </r>
      </set>
      <set comment="kpoint 66">
       <r>    1.9170    1.0000 </r>
       <r>    3.3316    1.0000 </r>
       <r>    5.0775    1.0000 </r>
       <r>    5.3409    1.0001 </r>
       <r>    5.3409    1.0001 </r>
       <r>    5.5419    1.0095 </r>
       <r>   21.6471    0.0000 </r>
       <r>   22.5154    0.0000 </r>
       <r>   22.5154    0.0000 </r>
      </set>
      <set comment="kpoint 67">
       <r>    2.0633    1.0000 </r>
       <r>    3.2834    1.0000 </r>
       <r>    5.2571    1.0000 </r>
       <r>    5.4019    1.0006 </r>
       <r>    5.4019    1.0006 </r>
       <r>    5.5617    1.0128 </r>
       <r>   20.9324    0.0000 </r>
       <r>   22.2316    0.0000 </r>
       <r>   22.2316    0.0000 </r>
      </set>
      <set comment="kpoint 68">
       <r>    2.1821    1.0000 </r>
       <r>    3.2377    1.0000 </r>
       <r>    5.4614    1.0022 </r>
       <r>    5.4614    1.0022 </r>
       <r>    5.4768    1.0030 </r>
       <r>    5.5806    1.0164 </r>
       <r>   20.2287    0.0000 </r>
       <r>   21.9651    0.0000 </r>
       <r>   21.9651    0.0000 </r>
      </set>
      <set comment="kpoint 69">
       <r>    2.2745    1.0000 </r>
       <r>    3.1945    1.0000 </r>
       <r>    5.5189    1.0066 </r>
       <r>    5.5189    1.0066 </r>
       <r>    5.5985    1.0203 </r>
       <r>    5.7342    1.0232 </r>
       <r>   19.5386    0.0000 </r>
       <r>   21.7165    0.0000 </r>
       <r>   21.7165    0.0000 </r>
      </set>
      <set comment="kpoint 70">
       <r>    2.3436    1.0000 </r>
       <r>    3.1537    1.0000 </r>
       <r>    5.5737    1.0150 </r>
       <r>    5.5737    1.0150 </r>
       <r>    5.6152    1.0241 </r>
       <r>    6.0248    0.1465 </r>
       <r>   18.8648    0.0000 </r>
       <r>   21.4865    0.0000 </r>
       <r>   21.4865    0.0000 </r>
      </set>
      <set comment="kpoint 71">
       <r>    2.3934    1.0000 </r>
       <r>    3.1165    1.0000 </r>
       <r>    5.6255    1.0265 </r>
       <r>    5.6255    1.0265 </r>
       <r>    5.6307    1.0276 </r>
       <r>    6.3429   -0.0065 </r>
       <r>   18.2104    0.0000 </r>
       <r>   21.2759    0.0000 </r>
       <r>   21.2759    0.0000 </r>
      </set>
      <set comment="kpoint 72">
       <r>    2.4279    1.0000 </r>
       <r>    3.0826    1.0000 </r>
       <r>    5.6449    1.0307 </r>
       <r>    5.6737    1.0349 </r>
       <r>    5.6737    1.0349 </r>
       <r>    6.6814    0.0000 </r>
       <r>   17.5789    0.0000 </r>
       <r>   21.0853    0.0000 </r>
       <r>   21.0853    0.0000 </r>
      </set>
      <set comment="kpoint 73">
       <r>    2.4509    1.0000 </r>
       <r>    3.0523    1.0000 </r>
       <r>    5.6578    1.0330 </r>
       <r>    5.7179    1.0306 </r>
       <r>    5.7179    1.0306 </r>
       <r>    7.0330    0.0000 </r>
       <r>   16.9749    0.0000 </r>
       <r>   20.9153    0.0000 </r>
       <r>   20.9153    0.0000 </r>
      </set>
      <set comment="kpoint 74">
       <r>    2.4655    1.0000 </r>
       <r>    3.0257    1.0000 </r>
       <r>    5.6691    1.0345 </r>
       <r>    5.7572    1.0053 </r>
       <r>    5.7572    1.0053 </r>
       <r>    7.3888    0.0000 </r>
       <r>   16.4047    0.0000 </r>
       <r>   20.7666    0.0000 </r>
       <r>   20.7666    0.0000 </r>
      </set>
      <set comment="kpoint 75">
       <r>    2.4741    1.0000 </r>
       <r>    3.0029    1.0000 </r>
       <r>    5.6788    1.0353 </r>
       <r>    5.7914    0.9587 </r>
       <r>    5.7914    0.9587 </r>
       <r>    7.7383    0.0000 </r>
       <r>   15.8767    0.0000 </r>
       <r>   20.6398    0.0000 </r>
       <r>   20.6398    0.0000 </r>
      </set>
      <set comment="kpoint 76">
       <r>    2.4788    1.0000 </r>
       <r>    2.9840    1.0000 </r>
       <r>    5.6868    1.0355 </r>
       <r>    5.8200    0.8981 </r>
       <r>    5.8200    0.8981 </r>
       <r>    8.0684    0.0000 </r>
       <r>   15.4023    0.0000 </r>
       <r>   20.5353    0.0000 </r>
       <r>   20.5353    0.0000 </r>
      </set>
      <set comment="kpoint 77">
       <r>    2.4807    1.0000 </r>
       <r>    2.9693    1.0000 </r>
       <r>    5.6930    1.0352 </r>
       <r>    5.8426    0.8356 </r>
       <r>    5.8426    0.8356 </r>
       <r>    8.3620    0.0000 </r>
       <r>   14.9976    0.0000 </r>
       <r>   20.4535    0.0000 </r>
       <r>   20.4535    0.0000 </r>
      </set>
      <set comment="kpoint 78">
       <r>    2.4816    1.0000 </r>
       <r>    2.9587    1.0000 </r>
       <r>    5.6976    1.0349 </r>
       <r>    5.8590    0.7828 </r>
       <r>    5.8590    0.7828 </r>
       <r>    8.5982    0.0000 </r>
       <r>   14.6827    0.0000 </r>
       <r>   20.3948    0.0000 </r>
       <r>   20.3948    0.0000 </r>
      </set>
      <set comment="kpoint 79">
       <r>    2.4819    1.0000 </r>
       <r>    2.9523    1.0000 </r>
       <r>    5.7003    1.0346 </r>
       <r>    5.8690    0.7480 </r>
       <r>    5.8690    0.7480 </r>
       <r>    8.7533    0.0000 </r>
       <r>   14.4805    0.0000 </r>
       <r>   20.3595    0.0000 </r>
       <r>   20.3595    0.0000 </r>
      </set>
      <set comment="kpoint 80">
       <r>    2.4819    1.0000 </r>
       <r>    2.9502    1.0000 </r>
       <r>    5.7012    1.0344 </r>
       <r>    5.8723    0.7359 </r>
       <r>    5.8723    0.7359 </r>
       <r>    8.8076    0.0000 </r>
       <r>   14.4105    0.0000 </r>
       <r>   20.3477    0.0000 </r>
       <r>   20.3477    0.0000 </r>
      </set>
      <set comment="kpoint 81">
       <r>    2.4819    1.0000 </r>
       <r>    2.9502    1.0000 </r>
       <r>    5.7012    1.0344 </r>
       <r>    5.8723    0.7359 </r>
       <r>    5.8723    0.7359 </r>
       <r>    8.8076    0.0000 </r>
       <r>   14.4105    0.0000 </r>
       <r>   20.3477    0.0000 </r>
       <r>   20.3477    0.0000 </r>
      </set>
      <set comment="kpoint 82">
       <r>    2.4824    1.0000 </r>
       <r>    2.9505    1.0000 </r>
       <r>    5.7008    1.0345 </r>
       <r>    5.8705    0.7425 </r>
       <r>    5.8722    0.7364 </r>
       <r>    8.8104    0.0000 </r>
       <r>   14.4109    0.0000 </r>
       <r>   20.3342    0.0000 </r>
       <r>   20.3492    0.0000 </r>
      </set>
      <set comment="kpoint 83">
       <r>    2.4838    1.0000 </r>
       <r>    2.9513    1.0000 </r>
       <r>    5.6998    1.0346 </r>
       <r>    5.8652    0.7616 </r>
       <r>    5.8718    0.7379 </r>
       <r>    8.8189    0.0000 </r>
       <r>   14.4119    0.0000 </r>
       <r>   20.2941    0.0000 </r>
       <r>   20.3535    0.0000 </r>
      </set>
      <set comment="kpoint 84">
       <r>    2.4861    1.0000 </r>
       <r>    2.9527    1.0000 </r>
       <r>    5.6981    1.0348 </r>
       <r>    5.8563    0.7920 </r>
       <r>    5.8711    0.7403 </r>
       <r>    8.8328    0.0000 </r>
       <r>   14.4137    0.0000 </r>
       <r>   20.2286    0.0000 </r>
       <r>   20.3607    0.0000 </r>
      </set>
      <set comment="kpoint 85">
       <r>    2.4894    1.0000 </r>
       <r>    2.9546    1.0000 </r>
       <r>    5.6956    1.0351 </r>
       <r>    5.8441    0.8312 </r>
       <r>    5.8702    0.7436 </r>
       <r>    8.8522    0.0000 </r>
       <r>   14.4162    0.0000 </r>
       <r>   20.1397    0.0000 </r>
       <r>   20.3708    0.0000 </r>
      </set>
      <set comment="kpoint 86">
       <r>    2.4936    1.0000 </r>
       <r>    2.9571    1.0000 </r>
       <r>    5.6925    1.0353 </r>
       <r>    5.8286    0.8758 </r>
       <r>    5.8690    0.7479 </r>
       <r>    8.8769    0.0000 </r>
       <r>   14.4195    0.0000 </r>
       <r>   20.0298    0.0000 </r>
       <r>   20.3838    0.0000 </r>
      </set>
      <set comment="kpoint 87">
       <r>    2.4988    1.0000 </r>
       <r>    2.9602    1.0000 </r>
       <r>    5.6887    1.0354 </r>
       <r>    5.8101    0.9215 </r>
       <r>    5.8676    0.7531 </r>
       <r>    8.9067    0.0000 </r>
       <r>   14.4234    0.0000 </r>
       <r>   19.9014    0.0000 </r>
       <r>   20.3996    0.0000 </r>
      </set>
      <set comment="kpoint 88">
       <r>    2.5048    1.0000 </r>
       <r>    2.9638    1.0000 </r>
       <r>    5.6842    1.0354 </r>
       <r>    5.7886    0.9635 </r>
       <r>    5.8659    0.7591 </r>
       <r>    8.9415    0.0000 </r>
       <r>   14.4281    0.0000 </r>
       <r>   19.7569    0.0000 </r>
       <r>   20.4183    0.0000 </r>
      </set>
      <set comment="kpoint 89">
       <r>    2.5118    1.0000 </r>
       <r>    2.9679    1.0000 </r>
       <r>    5.6791    1.0353 </r>
       <r>    5.7645    0.9976 </r>
       <r>    5.8639    0.7661 </r>
       <r>    8.9810    0.0000 </r>
       <r>   14.4335    0.0000 </r>
       <r>   19.5987    0.0000 </r>
       <r>   20.4398    0.0000 </r>
      </set>
      <set comment="kpoint 90">
       <r>    2.5196    1.0000 </r>
       <r>    2.9726    1.0000 </r>
       <r>    5.6733    1.0349 </r>
       <r>    5.7379    1.0210 </r>
       <r>    5.8617    0.7738 </r>
       <r>    9.0250    0.0000 </r>
       <r>   14.4397    0.0000 </r>
       <r>   19.4290    0.0000 </r>
       <r>   20.4642    0.0000 </r>
      </set>
      <set comment="kpoint 91">
       <r>    2.5284    1.0000 </r>
       <r>    2.9778    1.0000 </r>
       <r>    5.6668    1.0342 </r>
       <r>    5.7090    1.0330 </r>
       <r>    5.8592    0.7824 </r>
       <r>    9.0733    0.0000 </r>
       <r>   14.4466    0.0000 </r>
       <r>   19.2494    0.0000 </r>
       <r>   20.4914    0.0000 </r>
      </set>
      <set comment="kpoint 92">
       <r>    2.5380    1.0000 </r>
       <r>    2.9835    1.0000 </r>
       <r>    5.6597    1.0333 </r>
       <r>    5.6781    1.0352 </r>
       <r>    5.8564    0.7917 </r>
       <r>    9.1257    0.0000 </r>
       <r>   14.4542    0.0000 </r>
       <r>   19.0618    0.0000 </r>
       <r>   20.5214    0.0000 </r>
      </set>
      <set comment="kpoint 93">
       <r>    2.5485    1.0000 </r>
       <r>    2.9900    1.0000 </r>
       <r>    5.6455    1.0308 </r>
       <r>    5.6521    1.0320 </r>
       <r>    5.8534    0.8017 </r>
       <r>    9.1820    0.0000 </r>
       <r>   14.4626    0.0000 </r>
       <r>   18.8675    0.0000 </r>
       <r>   20.5542    0.0000 </r>
      </set>
      <set comment="kpoint 94">
       <r>    2.5597    1.0000 </r>
       <r>    2.9967    1.0000 </r>
       <r>    5.6112    1.0232 </r>
       <r>    5.6438    1.0304 </r>
       <r>    5.8501    0.8123 </r>
       <r>    9.2419    0.0000 </r>
       <r>   14.4717    0.0000 </r>
       <r>   18.6676    0.0000 </r>
       <r>   20.5898    0.0000 </r>
      </set>
      <set comment="kpoint 95">
       <r>    2.5718    1.0000 </r>
       <r>    3.0039    1.0000 </r>
       <r>    5.5755    1.0154 </r>
       <r>    5.6349    1.0286 </r>
       <r>    5.8466    0.8235 </r>
       <r>    9.3052    0.0000 </r>
       <r>   14.4816    0.0000 </r>
       <r>   18.4631    0.0000 </r>
       <r>   20.6281    0.0000 </r>
      </set>
      <set comment="kpoint 96">
       <r>    2.5847    1.0000 </r>
       <r>    3.0117    1.0000 </r>
       <r>    5.5386    1.0091 </r>
       <r>    5.6255    1.0265 </r>
       <r>    5.8428    0.8352 </r>
       <r>    9.3718    0.0000 </r>
       <r>   14.4922    0.0000 </r>
       <r>   18.2550    0.0000 </r>
       <r>   20.6692    0.0000 </r>
      </set>
      <set comment="kpoint 97">
       <r>    2.5984    1.0000 </r>
       <r>    3.0199    1.0000 </r>
       <r>    5.5006    1.0048 </r>
       <r>    5.6155    1.0242 </r>
       <r>    5.8387    0.8473 </r>
       <r>    9.4415    0.0000 </r>
       <r>   14.5036    0.0000 </r>
       <r>   18.0439    0.0000 </r>
       <r>   20.7130    0.0000 </r>
      </set>
      <set comment="kpoint 98">
       <r>    2.6128    1.0000 </r>
       <r>    3.0286    1.0000 </r>
       <r>    5.4618    1.0023 </r>
       <r>    5.6050    1.0217 </r>
       <r>    5.8344    0.8598 </r>
       <r>    9.5141    0.0000 </r>
       <r>   14.5157    0.0000 </r>
       <r>   17.8305    0.0000 </r>
       <r>   20.7596    0.0000 </r>
      </set>
      <set comment="kpoint 99">
       <r>    2.6279    1.0000 </r>
       <r>    3.0375    1.0000 </r>
       <r>    5.4221    1.0010 </r>
       <r>    5.5937    1.0192 </r>
       <r>    5.8299    0.8725 </r>
       <r>    9.5894    0.0000 </r>
       <r>   14.5285    0.0000 </r>
       <r>   17.6154    0.0000 </r>
       <r>   20.8088    0.0000 </r>
      </set>
      <set comment="kpoint 100">
       <r>    2.6437    1.0000 </r>
       <r>    3.0470    1.0000 </r>
       <r>    5.3820    1.0004 </r>
       <r>    5.5822    1.0167 </r>
       <r>    5.8250    0.8853 </r>
       <r>    9.6674    0.0000 </r>
       <r>   14.5421    0.0000 </r>
       <r>   17.3990    0.0000 </r>
       <r>   20.8606    0.0000 </r>
      </set>
      <set comment="kpoint 101">
       <r>    2.6602    1.0000 </r>
       <r>    3.0571    1.0000 </r>
       <r>    5.3414    1.0001 </r>
       <r>    5.5702    1.0143 </r>
       <r>    5.8200    0.8982 </r>
       <r>    9.7479    0.0000 </r>
       <r>   14.5562    0.0000 </r>
       <r>   17.1818    0.0000 </r>
       <r>   20.9152    0.0000 </r>
      </set>
      <set comment="kpoint 102">
       <r>    2.6774    1.0000 </r>
       <r>    3.0675    1.0000 </r>
       <r>    5.3005    1.0000 </r>
       <r>    5.5578    1.0121 </r>
       <r>    5.8146    0.9110 </r>
       <r>    9.8307    0.0000 </r>
       <r>   14.5710    0.0000 </r>
       <r>   16.9642    0.0000 </r>
       <r>   20.9723    0.0000 </r>
      </set>
      <set comment="kpoint 103">
       <r>    2.6952    1.0000 </r>
       <r>    3.0783    1.0000 </r>
       <r>    5.2594    1.0000 </r>
       <r>    5.5449    1.0100 </r>
       <r>    5.8091    0.9237 </r>
       <r>    9.9158    0.0000 </r>
       <r>   14.5863    0.0000 </r>
       <r>   16.7466    0.0000 </r>
       <r>   21.0320    0.0000 </r>
      </set>
      <set comment="kpoint 104">
       <r>    2.7136    1.0000 </r>
       <r>    3.0895    1.0000 </r>
       <r>    5.2182    1.0000 </r>
       <r>    5.5317    1.0081 </r>
       <r>    5.8032    0.9361 </r>
       <r>   10.0031    0.0000 </r>
       <r>   14.6019    0.0000 </r>
       <r>   16.5295    0.0000 </r>
       <r>   21.0943    0.0000 </r>
      </set>
      <set comment="kpoint 105">
       <r>    2.7325    1.0000 </r>
       <r>    3.1010    1.0000 </r>
       <r>    5.1769    1.0000 </r>
       <r>    5.5181    1.0065 </r>
       <r>    5.7971    0.9482 </r>
       <r>   10.0924    0.0000 </r>
       <r>   14.6175    0.0000 </r>
       <r>   16.3133    0.0000 </r>
       <r>   21.1591    0.0000 </r>
      </set>
      <set comment="kpoint 106">
       <r>    2.7520    1.0000 </r>
       <r>    3.1129    1.0000 </r>
       <r>    5.1357    1.0000 </r>
       <r>    5.5041    1.0051 </r>
       <r>    5.7908    0.9597 </r>
       <r>   10.1837    0.0000 </r>
       <r>   14.6328    0.0000 </r>
       <r>   16.0987    0.0000 </r>
       <r>   21.2264    0.0000 </r>
      </set>
      <set comment="kpoint 107">
       <r>    2.7720    1.0000 </r>
       <r>    3.1251    1.0000 </r>
       <r>    5.0946    1.0000 </r>
       <r>    5.4898    1.0039 </r>
       <r>    5.7842    0.9707 </r>
       <r>   10.2770    0.0000 </r>
       <r>   14.6469    0.0000 </r>
       <r>   15.8868    0.0000 </r>
       <r>   21.2962    0.0000 </r>
      </set>
      <set comment="kpoint 108">
       <r>    2.7925    1.0000 </r>
       <r>    3.1376    1.0000 </r>
       <r>    5.0538    1.0000 </r>
       <r>    5.4752    1.0029 </r>
       <r>    5.7774    0.9810 </r>
       <r>   10.3720    0.0000 </r>
       <r>   14.6583    0.0000 </r>
       <r>   15.6791    0.0000 </r>
       <r>   21.3685    0.0000 </r>
      </set>
      <set comment="kpoint 109">
       <r>    2.8135    1.0000 </r>
       <r>    3.1504    1.0000 </r>
       <r>    5.0132    1.0000 </r>
       <r>    5.4606    1.0022 </r>
       <r>    5.7703    0.9906 </r>
       <r>   10.4689    0.0000 </r>
       <r>   14.6641    0.0000 </r>
       <r>   15.4790    0.0000 </r>
       <r>   21.4432    0.0000 </r>
      </set>
      <set comment="kpoint 110">
       <r>    2.8348    1.0000 </r>
       <r>    3.1634    1.0000 </r>
       <r>    4.9728    1.0000 </r>
       <r>    5.4454    1.0016 </r>
       <r>    5.7630    0.9993 </r>
       <r>   10.5674    0.0000 </r>
       <r>   14.6574    0.0000 </r>
       <r>   15.2932    0.0000 </r>
       <r>   21.5204    0.0000 </r>
      </set>
      <set comment="kpoint 111">
       <r>    2.8564    1.0000 </r>
       <r>    3.1766    1.0000 </r>
       <r>    4.9329    1.0000 </r>
       <r>    5.4301    1.0011 </r>
       <r>    5.7554    1.0071 </r>
       <r>   10.6677    0.0000 </r>
       <r>   14.6237    0.0000 </r>
       <r>   15.1366    0.0000 </r>
       <r>   21.5999    0.0000 </r>
      </set>
      <set comment="kpoint 112">
       <r>    2.8784    1.0000 </r>
       <r>    3.1899    1.0000 </r>
       <r>    4.8934    1.0000 </r>
       <r>    5.4145    1.0008 </r>
       <r>    5.7476    1.0140 </r>
       <r>   10.7695    0.0000 </r>
       <r>   14.5405    0.0000 </r>
       <r>   15.0316    0.0000 </r>
       <r>   21.6817    0.0000 </r>
      </set>
      <set comment="kpoint 113">
       <r>    2.9007    1.0000 </r>
       <r>    3.2034    1.0000 </r>
       <r>    4.8543    1.0000 </r>
       <r>    5.3987    1.0005 </r>
       <r>    5.7396    1.0199 </r>
       <r>   10.8730    0.0000 </r>
       <r>   14.4021    0.0000 </r>
       <r>   14.9842    0.0000 </r>
       <r>   21.7659    0.0000 </r>
      </set>
      <set comment="kpoint 114">
       <r>    2.9233    1.0000 </r>
       <r>    3.2171    1.0000 </r>
       <r>    4.8157    1.0000 </r>
       <r>    5.3828    1.0004 </r>
       <r>    5.7313    1.0248 </r>
       <r>   10.9779    0.0000 </r>
       <r>   14.2286    0.0000 </r>
       <r>   14.9745    0.0000 </r>
       <r>   21.8524    0.0000 </r>
      </set>
      <set comment="kpoint 115">
       <r>    2.9461    1.0000 </r>
       <r>    3.2308    1.0000 </r>
       <r>    4.7777    1.0000 </r>
       <r>    5.3667    1.0002 </r>
       <r>    5.7228    1.0288 </r>
       <r>   11.0844    0.0000 </r>
       <r>   14.0385    0.0000 </r>
       <r>   14.9839    0.0000 </r>
       <r>   21.9412    0.0000 </r>
      </set>
      <set comment="kpoint 116">
       <r>    2.9691    1.0000 </r>
       <r>    3.2446    1.0000 </r>
       <r>    4.7402    1.0000 </r>
       <r>    5.3506    1.0002 </r>
       <r>    5.7141    1.0318 </r>
       <r>   11.1923    0.0000 </r>
       <r>   13.8411    0.0000 </r>
       <r>   15.0033    0.0000 </r>
       <r>   22.0322    0.0000 </r>
      </set>
      <set comment="kpoint 117">
       <r>    2.9922    1.0000 </r>
       <r>    3.2583    1.0000 </r>
       <r>    4.7033    1.0000 </r>
       <r>    5.3344    1.0001 </r>
       <r>    5.7051    1.0338 </r>
       <r>   11.3017    0.0000 </r>
       <r>   13.6404    0.0000 </r>
       <r>   15.0289    0.0000 </r>
       <r>   22.1254    0.0000 </r>
      </set>
      <set comment="kpoint 118">
       <r>    3.0154    1.0000 </r>
       <r>    3.2721    1.0000 </r>
       <r>    4.6671    1.0000 </r>
       <r>    5.3181    1.0001 </r>
       <r>    5.6959    1.0350 </r>
       <r>   11.4125    0.0000 </r>
       <r>   13.4385    0.0000 </r>
       <r>   15.0586    0.0000 </r>
       <r>   22.2208    0.0000 </r>
      </set>
      <set comment="kpoint 119">
       <r>    3.0384    1.0000 </r>
       <r>    3.2857    1.0000 </r>
       <r>    4.6311    1.0000 </r>
       <r>    5.3014    1.0000 </r>
       <r>    5.6861    1.0355 </r>
       <r>   11.5246    0.0000 </r>
       <r>   13.2365    0.0000 </r>
       <r>   15.0914    0.0000 </r>
       <r>   22.3183    0.0000 </r>
      </set>
      <set comment="kpoint 120">
       <r>    3.0617    1.0000 </r>
       <r>    3.2993    1.0000 </r>
       <r>    4.5962    1.0000 </r>
       <r>    5.2851    1.0000 </r>
       <r>    5.6764    1.0351 </r>
       <r>   11.6381    0.0000 </r>
       <r>   13.0350    0.0000 </r>
       <r>   15.1270    0.0000 </r>
       <r>   22.4181    0.0000 </r>
      </set>
      <set comment="kpoint 121">
       <r>    3.0617    1.0000 </r>
       <r>    3.2993    1.0000 </r>
       <r>    4.5962    1.0000 </r>
       <r>    5.2851    1.0000 </r>
       <r>    5.6764    1.0351 </r>
       <r>   11.6381    0.0000 </r>
       <r>   13.0350    0.0000 </r>
       <r>   15.1270    0.0000 </r>
       <r>   22.4180    0.0000 </r>
      </set>
      <set comment="kpoint 122">
       <r>    3.1312    1.0000 </r>
       <r>    3.3394    1.0000 </r>
       <r>    4.4955    1.0000 </r>
       <r>    5.2363    1.0000 </r>
       <r>    5.6462    1.0309 </r>
       <r>   11.9867    0.0000 </r>
       <r>   12.4369    0.0000 </r>
       <r>   15.2470    0.0000 </r>
       <r>   22.7297    0.0000 </r>
      </set>
      <set comment="kpoint 123">
       <r>    3.1976    1.0000 </r>
       <r>    3.3783    1.0000 </r>
       <r>    4.4013    1.0000 </r>
       <r>    5.1882    1.0000 </r>
       <r>    5.6140    1.0238 </r>
       <r>   11.8526    0.0000 </r>
       <r>   12.3468    0.0000 </r>
       <r>   15.3851    0.0000 </r>
       <r>   23.0597    0.0000 </r>
      </set>
      <set comment="kpoint 124">
       <r>    3.2572    1.0000 </r>
       <r>    3.4175    1.0000 </r>
       <r>    4.3140    1.0000 </r>
       <r>    5.1413    1.0000 </r>
       <r>    5.5799    1.0163 </r>
       <r>   11.2854    0.0000 </r>
       <r>   12.7181    0.0000 </r>
       <r>   15.5408    0.0000 </r>
       <r>   23.4073    0.0000 </r>
      </set>
      <set comment="kpoint 125">
       <r>    3.3033    1.0000 </r>
       <r>    3.4611    1.0000 </r>
       <r>    4.2338    1.0000 </r>
       <r>    5.0961    1.0000 </r>
       <r>    5.5440    1.0099 </r>
       <r>   10.7377    0.0000 </r>
       <r>   13.1002    0.0000 </r>
       <r>   15.7144    0.0000 </r>
       <r>   23.7719    0.0000 </r>
      </set>
      <set comment="kpoint 126">
       <r>    3.3285    1.0000 </r>
       <r>    3.5132    1.0000 </r>
       <r>    4.1609    1.0000 </r>
       <r>    5.0532    1.0000 </r>
       <r>    5.5065    1.0053 </r>
       <r>   10.2116    0.0000 </r>
       <r>   13.4929    0.0000 </r>
       <r>   15.9067    0.0000 </r>
       <r>   24.1529    0.0000 </r>
      </set>
      <set comment="kpoint 127">
       <r>    3.3302    1.0000 </r>
       <r>    3.5737    1.0000 </r>
       <r>    4.0953    1.0000 </r>
       <r>    5.0129    1.0000 </r>
       <r>    5.4674    1.0025 </r>
       <r>    9.7093    0.0000 </r>
       <r>   13.8961    0.0000 </r>
       <r>   16.1184    0.0000 </r>
       <r>   24.5496    0.0000 </r>
      </set>
      <set comment="kpoint 128">
       <r>    3.3088    1.0000 </r>
       <r>    3.6393    1.0000 </r>
       <r>    4.0370    1.0000 </r>
       <r>    4.9756    1.0000 </r>
       <r>    5.4269    1.0011 </r>
       <r>    9.2330    0.0000 </r>
       <r>   14.3095    0.0000 </r>
       <r>   16.3500    0.0000 </r>
       <r>   24.9617    0.0000 </r>
      </set>
      <set comment="kpoint 129">
       <r>    3.2639    1.0000 </r>
       <r>    3.7070    1.0000 </r>
       <r>    3.9860    1.0000 </r>
       <r>    4.9415    1.0000 </r>
       <r>    5.3848    1.0004 </r>
       <r>    8.7850    0.0000 </r>
       <r>   14.7330    0.0000 </r>
[...]
       </set>
       <set comment="band 6">
        <r>  0.0073  0.0024  0.0024  0.0000  0.0000  0.3048  0.1667  0.0000  0.5000 </r>
       </set>
       <set comment="band 7">
        <r>  0.0000  0.0000  0.0000  0.3069  0.1488  0.0000  0.0000  0.1488  0.0000 </r>
       </set>
       <set comment="band 8">
        <r>  0.1273  0.1493  0.1493  0.0000  0.0000  0.1171  0.0067  0.0000  0.0202 </r>
       </set>
       <set comment="band 9">
        <r>  0.0065  0.0725  0.0741  0.0321  0.0028  0.0095  0.0153  0.0010  0.0453 </r>
       </set>
      </set>
      <set comment="kpoint 146">
       <set comment="band 1">
        <r>  0.4953  0.0398  0.0398  0.0000  0.0000  0.0132  0.0008  0.0000  0.0024 </r>
       </set>
       <set comment="band 2">
        <r>  0.0000  0.0000  0.0000  0.0085  0.4674  0.0000  0.0000  0.4674  0.0000 </r>
       </set>
       <set comment="band 3">
        <r>  0.0005  0.0030  0.0030  0.0000  0.0000  0.6955  0.0649  0.0000  0.1947 </r>
       </set>
       <set comment="band 4">
        <r>  0.0000  0.0000  0.0000  0.0000  0.4855  0.0000  0.0000  0.4855  0.0000 </r>
       </set>
       <set comment="band 5">
        <r>  0.0000  0.0002  0.0002  0.0000  0.0000  0.0000  0.7316  0.0000  0.2439 </r>
       </set>
       <set comment="band 6">
        <r>  0.0051  0.0017  0.0017  0.0000  0.0000  0.2565  0.1799  0.0000  0.5396 </r>
       </set>
       <set comment="band 7">
        <r>  0.0000  0.0000  0.0000  0.2933  0.1497  0.0000  0.0000  0.1497  0.0000 </r>
       </set>
       <set comment="band 8">
        <r>  0.1150  0.1520  0.1520  0.0000  0.0000  0.1230  0.0059  0.0000  0.0176 </r>
       </set>
       <set comment="band 9">
        <r>  0.0004  0.0071  0.0070  0.1775  0.0108  0.0019  0.0013  0.0045  0.0048 </r>
       </set>
      </set>
      <set comment="kpoint 147">
       <set comment="band 1">
        <r>  0.5082  0.0349  0.0349  0.0000  0.0000  0.0094  0.0006  0.0000  0.0017 </r>
       </set>
       <set comment="band 2">
        <r>  0.0000  0.0000  0.0000  0.0072  0.4693  0.0000  0.0000  0.4693  0.0000 </r>
       </set>
       <set comment="band 3">
        <r>  0.0005  0.0027  0.0027  0.0000  0.0000  0.7487  0.0521  0.0000  0.1562 </r>
       </set>
       <set comment="band 4">
        <r>  0.0000  0.0000  0.0000  0.0000  0.4851  0.0000  0.0000  0.4851  0.0000 </r>
       </set>
       <set comment="band 5">
        <r>  0.0000  0.0002  0.0002  0.0000  0.0000  0.0000  0.7325  0.0000  0.2442 </r>
       </set>
       <set comment="band 6">
        <r>  0.0035  0.0011  0.0011  0.0000  0.0000  0.2068  0.1931  0.0000  0.5793 </r>
       </set>
       <set comment="band 7">
        <r>  0.0000  0.0000  0.0000  0.2787  0.1502  0.0000  0.0000  0.1502  0.0000 </r>
       </set>
       <set comment="band 8">
        <r>  0.1032  0.1545  0.1545  0.0000  0.0000  0.1288  0.0051  0.0000  0.0152 </r>
       </set>
       <set comment="band 9">
        <r>  0.0001  0.0014  0.0034  0.1948  0.0038  0.0009  0.0002  0.0071  0.0008 </r>
       </set>
      </set>
      <set comment="kpoint 148">
       <set comment="band 1">
        <r>  0.5200  0.0302  0.0302  0.0000  0.0000  0.0066  0.0004  0.0000  0.0012 </r>
       </set>
       <set comment="band 2">
        <r>  0.0000  0.0000  0.0000  0.0060  0.4712  0.0000  0.0000  0.4712  0.0000 </r>
       </set>
       <set comment="band 3">
        <r>  0.0005  0.0024  0.0024  0.0000  0.0000  0.7992  0.0399  0.0000  0.1196 </r>
       </set>
       <set comment="band 4">
        <r>  0.0000  0.0000  0.0000  0.0000  0.4848  0.0000  0.0000  0.4848  0.0000 </r>
       </set>
       <set comment="band 5">
        <r>  0.0000  0.0001  0.0001  0.0000  0.0000  0.0000  0.7334  0.0000  0.2445 </r>
       </set>
       <set comment="band 6">
        <r>  0.0023  0.0007  0.0007  0.0000  0.0000  0.1590  0.2056  0.0000  0.6169 </r>
       </set>
       <set comment="band 7">
        <r>  0.0000  0.0000  0.0000  0.2632  0.1501  0.0000  0.0000  0.1501  0.0000 </r>
       </set>
       <set comment="band 8">
        <r>  0.0920  0.1567  0.1567  0.0000  0.0000  0.1343  0.0043  0.0000  0.0130 </r>
       </set>
       <set comment="band 9">
        <r>  0.0000  0.0023  0.0002  0.2030  0.0057  0.0007  0.0004  0.0015  0.0002 </r>
       </set>
      </set>
      <set comment="kpoint 149">
       <set comment="band 1">
        <r>  0.5308  0.0258  0.0258  0.0000  0.0000  0.0045  0.0003  0.0000  0.0008 </r>
       </set>
       <set comment="band 2">
        <r>  0.0000  0.0000  0.0000  0.0050  0.4729  0.0000  0.0000  0.4729  0.0000 </r>
       </set>
       <set comment="band 3">
        <r>  0.0004  0.0021  0.0021  0.0000  0.0000  0.8446  0.0289  0.0000  0.0868 </r>
       </set>
       <set comment="band 4">
        <r>  0.0000  0.0000  0.0000  0.0000  0.4845  0.0000  0.0000  0.4845  0.0000 </r>
       </set>
       <set comment="band 5">
        <r>  0.0000  0.0001  0.0001  0.0000  0.0000  0.0000  0.7342  0.0000  0.2447 </r>
       </set>
       <set comment="band 6">
        <r>  0.0015  0.0005  0.0005  0.0000  0.0000  0.1157  0.2168  0.0000  0.6505 </r>
       </set>
       <set comment="band 7">
        <r>  0.0000  0.0000  0.0000  0.2466  0.1493  0.0000  0.0000  0.1493  0.0000 </r>
       </set>
       <set comment="band 8">
        <r>  0.0812  0.1588  0.1588  0.0000  0.0000  0.1396  0.0037  0.0000  0.0110 </r>
       </set>
       <set comment="band 9">
        <r>  0.0001  0.0029  0.0029  0.2133  0.0011  0.0001  0.0004  0.0017  0.0002 </r>
       </set>
      </set>
      <set comment="kpoint 150">
       <set comment="band 1">
        <r>  0.5405  0.0216  0.0216  0.0000  0.0000  0.0030  0.0002  0.0000  0.0006 </r>
       </set>
       <set comment="band 2">
        <r>  0.0000  0.0000  0.0000  0.0040  0.4745  0.0000  0.0000  0.4745  0.0000 </r>
       </set>
       <set comment="band 3">
        <r>  0.0003  0.0018  0.0018  0.0000  0.0000  0.8823  0.0198  0.0000  0.0595 </r>
       </set>
       <set comment="band 4">
        <r>  0.0000  0.0000  0.0000  0.0000  0.4842  0.0000  0.0000  0.4842  0.0000 </r>
       </set>
       <set comment="band 5">
        <r>  0.0000  0.0001  0.0001  0.0000  0.0000  0.0000  0.7351  0.0000  0.2450 </r>
       </set>
       <set comment="band 6">
        <r>  0.0009  0.0003  0.0003  0.0000  0.0000  0.0795  0.2262  0.0000  0.6785 </r>
       </set>
       <set comment="band 7">
        <r>  0.0000  0.0000  0.0000  0.2284  0.1473  0.0000  0.0000  0.1473  0.0000 </r>
       </set>
       <set comment="band 8">
        <r>  0.0710  0.1607  0.1607  0.0000  0.0000  0.1444  0.0031  0.0000  0.0092 </r>
       </set>
       <set comment="band 9">
        <r>  0.0000  0.0005  0.0006  0.2234  0.0003  0.0000  0.0001  0.0003  0.0001 </r>
       </set>
      </set>
      <set comment="kpoint 151">
       <set comment="band 1">
        <r>  0.5492  0.0177  0.0177  0.0000  0.0000  0.0019  0.0001  0.0000  0.0004 </r>
       </set>
       <set comment="band 2">
        <r>  0.0000  0.0000  0.0000  0.0032  0.4760  0.0000  0.0000  0.4760  0.0000 </r>
       </set>
       <set comment="band 3">
        <r>  0.0000  0.0000  0.0000  0.0000  0.4840  0.0000  0.0000  0.4840  0.0000 </r>
       </set>
       <set comment="band 4">
        <r>  0.0002  0.0014  0.0014  0.0000  0.0000  0.9114  0.0128  0.0000  0.0384 </r>
       </set>
       <set comment="band 5">
        <r>  0.0000  0.0000  0.0000  0.0000  0.0000  0.0000  0.7359  0.0000  0.2453 </r>
       </set>
       <set comment="band 6">
        <r>  0.0005  0.0002  0.0002  0.0000  0.0000  0.0515  0.2333  0.0000  0.7000 </r>
       </set>
       <set comment="band 7">
        <r>  0.0000  0.0000  0.0000  0.2082  0.1439  0.0000  0.0000  0.1439  0.0000 </r>
       </set>
       <set comment="band 8">
        <r>  0.0613  0.1626  0.1626  0.0000  0.0000  0.1485  0.0025  0.0000  0.0076 </r>
       </set>
       <set comment="band 9">
        <r>  0.0000  0.0001  0.0001  0.2354  0.0000  0.0000  0.0000  0.0000  0.0000 </r>
       </set>
      </set>
      <set comment="kpoint 152">
       <set comment="band 1">
        <r>  0.5569  0.0141  0.0141  0.0000  0.0000  0.0012  0.0001  0.0000  0.0002 </r>
       </set>
       <set comment="band 2">
        <r>  0.0000  0.0000  0.0000  0.0025  0.4774  0.0000  0.0000  0.4774  0.0000 </r>
       </set>
       <set comment="band 3">
        <r>  0.0000  0.0000  0.0000  0.0000  0.4837  0.0000  0.0000  0.4837  0.0000 </r>
       </set>
       <set comment="band 4">
        <r>  0.0002  0.0012  0.0012  0.0000  0.0000  0.9325  0.0078  0.0000  0.0233 </r>
       </set>
       <set comment="band 5">
        <r>  0.0000  0.0000  0.0000  0.0000  0.0000  0.0000  0.7367  0.0000  0.2456 </r>
       </set>
       <set comment="band 6">
        <r>  0.0003  0.0001  0.0001  0.0000  0.0000  0.0313  0.2385  0.0000  0.7156 </r>
       </set>
       <set comment="band 7">
        <r>  0.0000  0.0000  0.0000  0.1854  0.1384  0.0000  0.0000  0.1384  0.0000 </r>
       </set>
       <set comment="band 8">
        <r>  0.0520  0.1646  0.1646  0.0000  0.0000  0.1518  0.0021  0.0000  0.0062 </r>
       </set>
       <set comment="band 9">
        <r>  0.0000  0.0004  0.0004  0.2477  0.0011  0.0000  0.0000  0.0010  0.0000 </r>
       </set>
      </set>
      <set comment="kpoint 153">
       <set comment="band 1">
        <r>  0.5638  0.0109  0.0109  0.0000  0.0000  0.0007  0.0000  0.0000  0.0001 </r>
       </set>
       <set comment="band 2">
        <r>  0.0000  0.0000  0.0000  0.0019  0.4786  0.0000  0.0000  0.4786  0.0000 </r>
       </set>
       <set comment="band 3">
        <r>  0.0000  0.0000  0.0000  0.0000  0.4835  0.0000  0.0000  0.4835  0.0000 </r>
       </set>
       <set comment="band 4">
        <r>  0.0001  0.0009  0.0009  0.0000  0.0000  0.9467  0.0044  0.0000  0.0131 </r>
       </set>
       <set comment="band 5">
        <r>  0.0000  0.0000  0.0000  0.0000  0.0000  0.0000  0.7374  0.0000  0.2458 </r>
       </set>
       <set comment="band 6">
        <r>  0.0002  0.0000  0.0000  0.0000  0.0000  0.0177  0.2420  0.0000  0.7260 </r>
       </set>
       <set comment="band 7">
        <r>  0.0000  0.0000  0.0000  0.1590  0.1300  0.0000  0.0000  0.1300  0.0000 </r>
       </set>
       <set comment="band 8">
        <r>  0.0433  0.1667  0.1671  0.0000  0.0000  0.1536  0.0016  0.0000  0.0048 </r>
       </set>
       <set comment="band 9">
        <r>  0.0000  0.0004  0.0003  0.2665  0.0035  0.0000  0.0000  0.0040  0.0000 </r>
       </set>
      </set>
      <set comment="kpoint 154">
       <set comment="band 1">
        <r>  0.5697  0.0081  0.0081  0.0000  0.0000  0.0004  0.0000  0.0000  0.0001 </r>
       </set>
       <set comment="band 2">
        <r>  0.0000  0.0000  0.0000  0.0013  0.4797  0.0000  0.0000  0.4797  0.0000 </r>
       </set>
       <set comment="band 3">
        <r>  0.0000  0.0000  0.0000  0.0000  0.4833  0.0000  0.0000  0.4833  0.0000 </r>
       </set>
       <set comment="band 4">
        <r>  0.0001  0.0007  0.0007  0.0000  0.0000  0.9557  0.0023  0.0000  0.0068 </r>
       </set>
       <set comment="band 5">
        <r>  0.0000  0.0000  0.0000  0.0000  0.0000  0.0000  0.7381  0.0000  0.2460 </r>
       </set>
       <set comment="band 6">
        <r>  0.0001  0.0000  0.0000  0.0000  0.0000  0.0092  0.2442  0.0000  0.7326 </r>
       </set>
       <set comment="band 7">
        <r>  0.0000  0.0000  0.0000  0.1279  0.1172  0.0000  0.0000  0.1172  0.0000 </r>
       </set>
       <set comment="band 8">
        <r>  0.0350  0.1698  0.1697  0.0000  0.0000  0.1533  0.0012  0.0000  0.0037 </r>
       </set>
       <set comment="band 9">
        <r>  0.0000  0.0012  0.0007  0.2883  0.0097  0.0001  0.0001  0.0090  0.0000 </r>
       </set>
      </set>
      <set comment="kpoint 155">
       <set comment="band 1">
        <r>  0.5746  0.0056  0.0056  0.0000  0.0000  0.0002  0.0000  0.0000  0.0000 </r>
       </set>
       <set comment="band 2">
        <r>  0.0000  0.0000  0.0000  0.0009  0.4807  0.0000  0.0000  0.4807  0.0000 </r>
       </set>
       <set comment="band 3">
        <r>  0.0000  0.0000  0.0000  0.0000  0.4832  0.0000  0.0000  0.4832  0.0000 </r>
       </set>
       <set comment="band 4">
        <r>  0.0000  0.0004  0.0004  0.0000  0.0000  0.9609  0.0010  0.0000  0.0031 </r>
       </set>
       <set comment="band 5">
        <r>  0.0000  0.0000  0.0000  0.0000  0.0000  0.0000  0.7386  0.0000  0.2462 </r>
       </set>
       <set comment="band 6">
        <r>  0.0000  0.0000  0.0000  0.0000  0.0000  0.0042  0.2455  0.0000  0.7365 </r>
       </set>
       <set comment="band 7">
        <r>  0.0000  0.0000  0.0000  0.0917  0.0985  0.0000  0.0000  0.0985  0.0000 </r>
       </set>
       <set comment="band 8">
        <r>  0.0272  0.1735  0.1734  0.0000  0.0000  0.1495  0.0009  0.0000  0.0027 </r>
       </set>
       <set comment="band 9">
        <r>  0.0000  0.0015  0.0014  0.3184  0.0183  0.0000  0.0000  0.0178  0.0000 </r>
       </set>
      </set>
      <set comment="kpoint 156">
       <set comment="band 1">
        <r>  0.5787  0.0036  0.0036  0.0000  0.0000  0.0001  0.0000  0.0000  0.0000 </r>
       </set>
       <set comment="band 2">
        <r>  0.0000  0.0000  0.0000  0.0006  0.4814  0.0000  0.0000  0.4814  0.0000 </r>
       </set>
       <set comment="band 3">
        <r>  0.0000  0.0000  0.0000  0.0000  0.4831  0.0000  0.0000  0.4831  0.0000 </r>
       </set>
       <set comment="band 4">
        <r>  0.0000  0.0003  0.0003  0.0000  0.0000  0.9637  0.0004  0.0000  0.0012 </r>
       </set>
       <set comment="band 5">
        <r>  0.0000  0.0000  0.0000  0.0000  0.0000  0.0000  0.7391  0.0000  0.2464 </r>
       </set>
       <set comment="band 6">
        <r>  0.0000  0.0000  0.0000  0.0000  0.0000  0.0017  0.2462  0.0000  0.7385 </r>
       </set>
       <set comment="band 7">
        <r>  0.0000  0.0000  0.0000  0.0533  0.0731  0.0000  0.0000  0.0731  0.0000 </r>
       </set>
       <set comment="band 8">
        <r>  0.0198  0.1787  0.1787  0.0000  0.0000  0.1399  0.0006  0.0000  0.0018 </r>
       </set>
       <set comment="band 9">
        <r>  0.0000  0.0068  0.0090  0.3310  0.0326  0.0006  0.0003  0.0363  0.0003 </r>
       </set>
      </set>
      <set comment="kpoint 157">
       <set comment="band 1">
        <r>  0.5818  0.0020  0.0020  0.0000  0.0000  0.0000  0.0000  0.0000  0.0000 </r>
       </set>
       <set comment="band 2">
        <r>  0.0000  0.0000  0.0000  0.0003  0.4821  0.0000  0.0000  0.4821  0.0000 </r>
       </set>
       <set comment="band 3">
        <r>  0.0000  0.0000  0.0000  0.0000  0.4830  0.0000  0.0000  0.4830  0.0000 </r>
       </set>
       <set comment="band 4">
        <r>  0.0000  0.0002  0.0002  0.0000  0.0000  0.9650  0.0001  0.0000  0.0004 </r>
       </set>
       <set comment="band 5">
        <r>  0.0000  0.0000  0.0000  0.0000  0.0000  0.0000  0.7395  0.0000  0.2465 </r>
       </set>
       <set comment="band 6">
        <r>  0.0000  0.0000  0.0000  0.0000  0.0000  0.0005  0.2465  0.0000  0.7395 </r>
       </set>
       <set comment="band 7">
        <r>  0.0000  0.0000  0.0000  0.0215  0.0442  0.0000  0.0000  0.0442  0.0000 </r>
       </set>
       <set comment="band 8">
        <r>  0.0130  0.1858  0.1874  0.0000  0.0000  0.1203  0.0004  0.0000  0.0011 </r>
       </set>
       <set comment="band 9">
        <r>  0.0000  0.0030  0.0039  0.3775  0.0344  0.0002  0.0001  0.0394  0.0001 </r>
       </set>
      </set>
      <set comment="kpoint 158">
       <set comment="band 1">
        <r>  0.5841  0.0009  0.0009  0.0000  0.0000  0.0000  0.0000  0.0000  0.0000 </r>
       </set>
       <set comment="band 2">
        <r>  0.0000  0.0000  0.0000  0.0001  0.4825  0.0000  0.0000  0.4825  0.0000 </r>
       </set>
       <set comment="band 3">
        <r>  0.0000  0.0000  0.0000  0.0000  0.4829  0.0000  0.0000  0.4829  0.0000 </r>
       </set>
       <set comment="band 4">
        <r>  0.0000  0.0001  0.0001  0.0000  0.0000  0.9655  0.0000  0.0000  0.0001 </r>
       </set>
       <set comment="band 5">
        <r>  0.0000  0.0000  0.0000  0.0000  0.0000  0.0000  0.7397  0.0000  0.2466 </r>
       </set>
       <set comment="band 6">
        <r>  0.0000  0.0000  0.0000  0.0000  0.0000  0.0001  0.2466  0.0000  0.7398 </r>
       </set>
       <set comment="band 7">
        <r>  0.0000  0.0000  0.0000  0.0048  0.0195  0.0000  0.0000  0.0195  0.0000 </r>
       </set>
       <set comment="band 8">
        <r>  0.0069  0.2046  0.1933  0.0002  0.0000  0.0848  0.0002  0.0000  0.0006 </r>
       </set>
       <set comment="band 9">
        <r>  0.0000  0.0352  0.0319  0.3458  0.0313  0.0001  0.0002  0.0270  0.0001 </r>
       </set>
      </set>
      <set comment="kpoint 159">
       <set comment="band 1">
        <r>  0.5854  0.0002  0.0002  0.0000  0.0000  0.0000  0.0000  0.0000  0.0000 </r>
       </set>
       <set comment="band 2">
        <r>  0.0000  0.0000  0.0000  0.0000  0.4828  0.0000  0.0000  0.4828  0.0000 </r>
       </set>
       <set comment="band 3">
        <r>  0.0000  0.0000  0.0000  0.0000  0.4829  0.0000  0.0000  0.4829  0.0000 </r>
       </set>
       <set comment="band 4">
        <r>  0.0000  0.0000  0.0000  0.0000  0.0000  0.9657  0.0000  0.0000  0.0000 </r>
       </set>
       <set comment="band 5">
        <r>  0.0000  0.0000  0.0000  0.0000  0.0000  0.0000  0.7399  0.0000  0.2466 </r>
       </set>
       <set comment="band 6">
        <r>  0.0000  0.0000  0.0000  0.0000  0.0000  0.0000  0.2466  0.0000  0.7399 </r>
       </set>
       <set comment="band 7">
        <r>  0.0000  0.0000  0.0000  0.0003  0.0047  0.0000  0.0000  0.0047  0.0000 </r>
       </set>
       <set comment="band 8">
        <r>  0.0015  0.1160  0.2023  0.1126  0.0040  0.0238  0.0001  0.0040  0.0001 </r>
       </set>
       <set comment="band 9">
        <r>  0.0002  0.0510  0.1720  0.2155  0.0079  0.0039  0.0002  0.0090  0.0000 </r>
       </set>
      </set>
      <set comment="kpoint 160">
       <set comment="band 1">
        <r>  0.5859  0.0000  0.0000  0.0000  0.0000  0.0000  0.0000  0.0000  0.0000 </r>
       </set>
       <set comment="band 2">
        <r>  0.0000  0.0000  0.0000  0.0000  0.3219  0.3219  0.0000  0.3219  0.0000 </r>
       </set>
       <set comment="band 3">
        <r>  0.0000  0.0000  0.0000  0.0000  0.2451  0.2734  0.0000  0.4472  0.0000 </r>
       </set>
       <set comment="band 4">
        <r>  0.0000  0.0000  0.0000  0.0000  0.3987  0.3704  0.0000  0.1966  0.0000 </r>
       </set>
       <set comment="band 5">
        <r>  0.0000  0.0000  0.0000  0.0000  0.0000  0.0000  0.3141  0.0000  0.6725 </r>
       </set>
       <set comment="band 6">
        <r>  0.0000  0.0000  0.0000  0.0000  0.0000  0.0000  0.6725  0.0000  0.3141 </r>
       </set>
       <set comment="band 7">
        <r>  0.0000  0.0000  0.0000  0.0000  0.0000  0.0000  0.0000  0.0000  0.0000 </r>
       </set>
       <set comment="band 8">
        <r>  0.0000  0.0701  0.3174  0.0614  0.0000  0.0000  0.0000  0.0000  0.0000 </r>
       </set>
       <set comment="band 9">
        <r>  0.0000  0.0418  0.0919  0.3152  0.0000  0.0000  0.0000  0.0000  0.0000 </r>
       </set>
      </set>
     </set>
    </set>
   </array>
  </projected>
 </calculation>
 <structure name="finalpos" >
  <crystal>
   <varray name="basis" >
    <v>       1.81000000       1.81000000       0.00000000 </v>
    <v>       0.00000000       1.81000000       1.81000000 </v>
    <v>       1.81000000       0.00000000       1.81000000 </v>
   </varray>
   <i name="volume">     11.85948200 </i>
   <varray name="rec_basis" >
    <v>       0.27624309       0.27624309      -0.27624309 </v>
    <v>      -0.27624309       0.27624309       0.27624309 </v>
    <v>       0.27624309      -0.27624309       0.27624309 </v>
   </varray>
  </crystal>
  <varray name="positions" >
   <v>       0.00000000       0.00000000       0.00000000 </v>
  </varray>
 </structure>
</modeling>
