"Cu metal"                              
           1
     1.810000    1.810000    0.000000
     0.000000    1.810000    1.810000
     1.810000    0.000000    1.810000
   Cu
   1
Direct configuration=     1
   0.00000000  0.00000000  0.00000000
