   2   2   0   0
  0.9066555E+02  0.2463800E-09  0.2463789E-09  0.3449320E-08  0.5000000E-15
  1.000000000000000E-004
  CAR 
 "graphene"                              
     10.58538282    -24.51040414  301     -4.38516380      1.00000000
    -24.510  0.0000E+00  0.0000E+00
    -24.393  0.0000E+00  0.0000E+00
    -24.276  0.0000E+00  0.0000E+00
    -24.159  0.0000E+00  0.0000E+00
    -24.042  0.0000E+00  0.0000E+00
    -23.925  0.0000E+00  0.0000E+00
    -23.808  0.0000E+00  0.0000E+00
    -23.692  0.0000E+00  0.0000E+00
    -23.575  0.0000E+00  0.0000E+00
    -23.458  0.2983E-16  0.3489E-17
    -23.341  0.3117E-11  0.3646E-12
    -23.224  0.2251E-07  0.2634E-08
    -23.107  0.1181E-04  0.1385E-05
    -22.990  0.4983E-03  0.5968E-04
    -22.873  0.2024E-02  0.2964E-03
    -22.756  0.9131E-03  0.4033E-03
    -22.639  0.7983E-04  0.4126E-03
    -22.522  0.2160E-02  0.6652E-03
    -22.405  0.1153E-01  0.2014E-02
    -22.288  0.6791E-02  0.2808E-02
    -22.171  0.4151E-03  0.2857E-02
    -22.054  0.2172E-05  0.2857E-02
    -21.937  0.8528E-09  0.2857E-02
    -21.820  0.1330E-07  0.2857E-02
    -21.703  0.1488E-04  0.2859E-02
    -21.586  0.1290E-02  0.3010E-02
    -21.469  0.1015E-01  0.4198E-02
    -21.352  0.8679E-02  0.5213E-02
    -21.235  0.8020E-03  0.5307E-02
    -21.118  0.1103E-02  0.5436E-02
    -21.001  0.9670E-02  0.6567E-02
    -20.884  0.9207E-02  0.7644E-02
    -20.767  0.9410E-03  0.7754E-02
    -20.650  0.8574E-05  0.7755E-02
    -20.533  0.5985E-08  0.7755E-02
    -20.416  0.2967E-12  0.7755E-02
    -20.299  0.0000E+00  0.7755E-02
    -20.182  0.1162E-16  0.7755E-02
    -20.065  0.2316E-11  0.7755E-02
    -19.948  0.3368E-07  0.7755E-02
    -19.831  0.3500E-04  0.7759E-02
    -19.714  0.2826E-02  0.8090E-02
    -19.597  0.2083E-01  0.1053E-01
    -19.480  0.1673E-01  0.1248E-01
    -19.363  0.1427E-02  0.1265E-01
    -19.246  0.1069E-04  0.1265E-01
    -19.129  0.6119E-08  0.1265E-01
    -19.012  0.2093E-06  0.1265E-01
    -18.895  0.9444E-04  0.1266E-01
    -18.778  0.3454E-02  0.1307E-01
    -18.661  0.1231E-01  0.1451E-01
    -18.544  0.4881E-02  0.1508E-01
    -18.427  0.1944E-03  0.1510E-01
    -18.310  0.6428E-06  0.1510E-01
    -18.193  0.1569E-09  0.1510E-01
    -18.076  0.2673E-14  0.1510E-01
    -17.959  0.3308E-15  0.1510E-01
    -17.842  0.3039E-10  0.1510E-01
    -17.725  0.1945E-06  0.1510E-01
    -17.608  0.9259E-04  0.1511E-01
    -17.491  0.3868E-02  0.1557E-01
    -17.374  0.1961E-01  0.1786E-01
    -17.257  0.1618E-01  0.1975E-01
    -17.140  0.2083E-02  0.2000E-01
    -17.023  0.3004E-04  0.2000E-01
    -16.906  0.3619E-07  0.2000E-01
    -16.789  0.3745E-11  0.2000E-01
    -16.672  0.9771E-08  0.2000E-01
    -16.555  0.1204E-04  0.2000E-01
    -16.438  0.1144E-02  0.2014E-01
    -16.321  0.9797E-02  0.2128E-01
    -16.204  0.9073E-02  0.2234E-01
    -16.087  0.9005E-03  0.2245E-01
    -15.970  0.7948E-05  0.2245E-01
    -15.853  0.5369E-08  0.2245E-01
    -15.736  0.1600E-07  0.2245E-01
    -15.619  0.1690E-04  0.2245E-01
    -15.502  0.1386E-02  0.2261E-01
    -15.385  0.1036E-01  0.2383E-01
    -15.269  0.8435E-02  0.2481E-01
    -15.152  0.7321E-03  0.2490E-01
    -15.035  0.4507E-03  0.2495E-01
    -14.918  0.6986E-02  0.2577E-01
    -14.801  0.1141E-01  0.2710E-01
    -14.684  0.2054E-02  0.2734E-01
    -14.567  0.3461E-04  0.2735E-01
    -14.450  0.4601E-07  0.2735E-01
    -14.333  0.4403E-11  0.2735E-01
    -14.216  0.2789E-16  0.2735E-01
    -14.099  0.0000E+00  0.2735E-01
    -13.982  0.2784E-14  0.2735E-01
    -13.865  0.1883E-09  0.2735E-01
    -13.748  0.8864E-06  0.2735E-01
    -13.631  0.3067E-03  0.2738E-01
    -13.514  0.8743E-02  0.2841E-01
    -13.397  0.2520E-01  0.3135E-01
    -13.280  0.1473E-01  0.3308E-01
    -13.163  0.1170E-01  0.3445E-01
    -13.046  0.2091E-02  0.3469E-01
    -12.929  0.3576E-04  0.3469E-01
    -12.812  0.4829E-07  0.3469E-01
    -12.695  0.4698E-11  0.3469E-01
    -12.578  0.3254E-16  0.3469E-01
    -12.461  0.0000E+00  0.3469E-01
    -12.344  0.0000E+00  0.3469E-01
    -12.227  0.1849E-12  0.3469E-01
    -12.110  0.4171E-08  0.3469E-01
    -11.993  0.6666E-05  0.3469E-01
    -11.876  0.8126E-03  0.3479E-01
    -11.759  0.8761E-02  0.3581E-01
    -11.642  0.1008E-01  0.3699E-01
    -11.525  0.1259E-02  0.3714E-01
    -11.408  0.4212E-04  0.3715E-01
    -11.291  0.1827E-02  0.3736E-01
    -11.174  0.1115E-01  0.3866E-01
    -11.057  0.8259E-02  0.3963E-01
    -10.940  0.2574E-02  0.3993E-01
    -10.823  0.1360E-02  0.4009E-01
    -10.706  0.1332E-01  0.4165E-01
    -10.589  0.2351E-01  0.4440E-01
    -10.472  0.1041E-01  0.4562E-01
    -10.355  0.1408E-01  0.4726E-01
    -10.238  0.1407E-01  0.4891E-01
    -10.121  0.7115E-02  0.4974E-01
    -10.004  0.4566E-03  0.4980E-01
     -9.887  0.2626E-04  0.4980E-01
     -9.770  0.1673E-02  0.4999E-01
     -9.653  0.1089E-01  0.5127E-01
     -9.536  0.7777E-02  0.5218E-01
     -9.419  0.1828E-02  0.5239E-01
     -9.302  0.1006E-01  0.5357E-01
     -9.185  0.9368E-02  0.5466E-01
     -9.068  0.8529E-02  0.5566E-01
     -8.951  0.1111E-01  0.5696E-01
     -8.834  0.8275E-02  0.5793E-01
     -8.717  0.2453E-01  0.6080E-01
     -8.600  0.1018E-01  0.6199E-01
     -8.483  0.4282E-03  0.6204E-01
     -8.366  0.3970E-04  0.6205E-01
     -8.249  0.2165E-02  0.6230E-01
     -8.132  0.1153E-01  0.6365E-01
     -8.015  0.6780E-02  0.6444E-01
     -7.898  0.4135E-03  0.6449E-01
     -7.781  0.2159E-05  0.6449E-01
     -7.664  0.1756E-08  0.6449E-01
     -7.547  0.2296E-05  0.6449E-01
     -7.430  0.4514E-03  0.6454E-01
     -7.313  0.9167E-02  0.6562E-01
     -7.196  0.3110E-01  0.6925E-01
     -7.079  0.2024E-01  0.7162E-01
     -6.963  0.1830E-02  0.7183E-01
     -6.846  0.1583E-04  0.7184E-01
     -6.729  0.4729E-07  0.7184E-01
     -6.612  0.3236E-04  0.7184E-01
     -6.495  0.2250E-02  0.7210E-01
     -6.378  0.1453E-01  0.7380E-01
     -6.261  0.1032E-01  0.7501E-01
     -6.144  0.7749E-03  0.7510E-01
     -6.027  0.5082E-05  0.7510E-01
     -5.910  0.2530E-08  0.7510E-01
     -5.793  0.1144E-12  0.7510E-01
     -5.676  0.8978E-09  0.7510E-01
     -5.559  0.2255E-05  0.7510E-01
     -5.442  0.4247E-03  0.7515E-01
     -5.325  0.6854E-02  0.7595E-01
     -5.208  0.1149E-01  0.7730E-01
     -5.091  0.2155E-02  0.7755E-01
     -4.974  0.1963E-02  0.7778E-01
     -4.857  0.1126E-01  0.7910E-01
     -4.740  0.7233E-02  0.7994E-01
     -4.623  0.4856E-03  0.8000E-01
     -4.506  0.2811E-05  0.8000E-01
     -4.389  0.1224E-08  0.8000E-01
     -4.272  0.3753E-13  0.8000E-01
     -4.155  0.0000E+00  0.8000E-01
     -4.038  0.0000E+00  0.8000E-01
     -3.921  0.0000E+00  0.8000E-01
     -3.804  0.0000E+00  0.8000E-01
     -3.687  0.0000E+00  0.8000E-01
     -3.570  0.0000E+00  0.8000E-01
     -3.453  0.0000E+00  0.8000E-01
     -3.336  0.0000E+00  0.8000E-01
     -3.219  0.0000E+00  0.8000E-01
     -3.102  0.0000E+00  0.8000E-01
     -2.985  0.0000E+00  0.8000E-01
     -2.868  0.0000E+00  0.8000E-01
     -2.751  0.0000E+00  0.8000E-01
     -2.634  0.0000E+00  0.8000E-01
     -2.517  0.0000E+00  0.8000E-01
     -2.400  0.1013E-14  0.8000E-01
     -2.283  0.7537E-10  0.8000E-01
     -2.166  0.4010E-06  0.8000E-01
     -2.049  0.1647E-03  0.8002E-01
     -1.932  0.5995E-02  0.8072E-01
     -1.815  0.2358E-01  0.8348E-01
     -1.698  0.1148E-01  0.8482E-01
     -1.581  0.6405E-03  0.8490E-01
     -1.464  0.3352E-05  0.8490E-01
     -1.347  0.1402E-08  0.8490E-01
     -1.230  0.4810E-09  0.8490E-01
     -1.113  0.1443E-05  0.8490E-01
     -0.996  0.3227E-03  0.8494E-01
     -0.879  0.6113E-02  0.8565E-01
     -0.762  0.1189E-01  0.8704E-01
     -0.645  0.2560E-02  0.8734E-01
     -0.528  0.5244E-04  0.8735E-01
     -0.411  0.1250E-06  0.8735E-01
     -0.294  0.1702E-04  0.8735E-01
     -0.177  0.5984E-03  0.8742E-01
     -0.060  0.2057E-02  0.8766E-01
      0.057  0.7867E-03  0.8775E-01
      0.174  0.3014E-04  0.8776E-01
      0.291  0.3666E-05  0.8776E-01
      0.408  0.5941E-03  0.8783E-01
      0.525  0.1061E-01  0.8907E-01
      0.642  0.3334E-01  0.9297E-01
      0.759  0.2037E-01  0.9535E-01
      0.876  0.3456E-02  0.9575E-01
      0.993  0.1638E-02  0.9595E-01
      1.110  0.2026E-02  0.9618E-01
      1.227  0.3593E-02  0.9660E-01
      1.343  0.1192E-01  0.9800E-01
      1.460  0.9578E-02  0.9912E-01
      1.577  0.1270E-01  0.1006E+00
      1.694  0.9265E-02  0.1017E+00
      1.811  0.1797E-01  0.1038E+00
      1.928  0.1664E-01  0.1057E+00
      2.045  0.3224E-02  0.1061E+00
      2.162  0.7487E-04  0.1061E+00
      2.279  0.1484E-04  0.1061E+00
      2.396  0.1288E-02  0.1063E+00
      2.513  0.1099E-01  0.1076E+00
      2.630  0.1766E-01  0.1096E+00
      2.747  0.1333E-01  0.1112E+00
      2.864  0.2053E-01  0.1136E+00
      2.981  0.1886E-01  0.1158E+00
      3.098  0.1138E-01  0.1171E+00
      3.215  0.9987E-02  0.1183E+00
      3.332  0.7906E-02  0.1192E+00
      3.449  0.1296E-01  0.1207E+00
      3.566  0.1262E-01  0.1222E+00
      3.683  0.8320E-02  0.1232E+00
      3.800  0.6945E-03  0.1233E+00
      3.917  0.1870E-03  0.1233E+00
      4.034  0.4734E-02  0.1238E+00
      4.151  0.1234E-01  0.1253E+00
      4.268  0.3730E-02  0.1257E+00
      4.385  0.6279E-02  0.1265E+00
      4.502  0.2438E-01  0.1293E+00
      4.619  0.1069E-01  0.1306E+00
      4.736  0.4748E-03  0.1306E+00
      4.853  0.1765E-05  0.1306E+00
      4.970  0.1101E-05  0.1306E+00
      5.087  0.3523E-03  0.1307E+00
      5.204  0.9327E-02  0.1317E+00
      5.321  0.2470E-01  0.1346E+00
      5.438  0.8361E-02  0.1356E+00
      5.555  0.1533E-01  0.1374E+00
      5.672  0.2395E-01  0.1402E+00
      5.789  0.1478E-01  0.1419E+00
      5.906  0.1009E-01  0.1431E+00
      6.023  0.1247E-01  0.1446E+00
      6.140  0.5939E-02  0.1453E+00
      6.257  0.3014E-03  0.1453E+00
      6.374  0.1342E-04  0.1453E+00
      6.491  0.1148E-02  0.1454E+00
      6.608  0.9809E-02  0.1466E+00
      6.725  0.9060E-02  0.1476E+00
      6.842  0.8966E-03  0.1478E+00
      6.959  0.7889E-05  0.1478E+00
      7.076  0.1728E-06  0.1478E+00
      7.193  0.8162E-04  0.1478E+00
      7.310  0.3212E-02  0.1481E+00
      7.427  0.1234E-01  0.1496E+00
      7.544  0.8732E-02  0.1506E+00
      7.661  0.1255E-01  0.1521E+00
      7.778  0.4769E-02  0.1526E+00
      7.895  0.1857E-03  0.1527E+00
      8.012  0.2354E-03  0.1527E+00
      8.129  0.5318E-02  0.1533E+00
      8.246  0.1244E-01  0.1548E+00
      8.363  0.8547E-02  0.1558E+00
      8.480  0.1223E-01  0.1572E+00
      8.597  0.3024E-02  0.1575E+00
      8.714  0.7375E-04  0.1576E+00
      8.831  0.2513E-03  0.1576E+00
      8.948  0.5480E-02  0.1582E+00
      9.065  0.1214E-01  0.1596E+00
      9.182  0.2988E-02  0.1600E+00
      9.299  0.7081E-04  0.1600E+00
      9.416  0.1349E-06  0.1600E+00
      9.533  0.1866E-10  0.1600E+00
      9.649  0.1782E-15  0.1600E+00
      9.766  0.0000E+00  0.1600E+00
      9.883  0.0000E+00  0.1600E+00
     10.000  0.0000E+00  0.1600E+00
     10.117  0.0000E+00  0.1600E+00
     10.234  0.0000E+00  0.1600E+00
     10.351  0.0000E+00  0.1600E+00
     10.468  0.0000E+00  0.1600E+00
     10.585  0.0000E+00  0.1600E+00
