    2    2  100    1
  0.9066555E+02  0.2463800E-09  0.2463788E-09  0.3449320E-08  0.5000000E-15
  1.000000000000000E-004
  CAR 
 "graphene"                              
    8   25    8
 
  0.3742002E-15  0.3742002E-15  0.1262379E-14  0.2040816E-01
   1      -22.915141
   2      -11.008371
   3       -6.401756
   4       -6.401729
   5       -0.111621
   6        0.645485
   7        0.857780
   8        1.085250
 
  0.1428571E+00  0.3747003E-15  0.1262379E-14  0.4081633E-01
   1      -22.432993
   2      -10.434211
   3       -8.160830
   4       -7.285962
   5        0.544068
   6        1.310773
   7        1.531763
   8        1.756991
 
  0.2857143E+00  0.3608225E-15  0.1262379E-14  0.4081633E-01
   1      -21.003462
   2      -11.751429
   3       -8.767075
   4       -8.761416
   5        2.505194
   6        2.839957
   7        3.360091
   8        3.553578
 
  0.4285714E+00  0.3608225E-15  0.1262379E-14  0.4081633E-01
   1      -18.710508
   2      -15.396533
   3       -9.671282
   4       -6.394020
   5       -0.843675
   6        4.085364
   7        5.766603
   8        6.603587
 
  0.3742002E-15  0.1428571E+00  0.1262379E-14  0.4081633E-01
   1      -22.432989
   2      -10.434205
   3       -8.160786
   4       -7.286007
   5        0.544074
   6        1.310779
   7        1.531770
   8        1.756998
 
  0.1428571E+00  0.1428571E+00  0.1262379E-14  0.4081633E-01
   1      -21.477175
   2      -10.263656
   3       -9.309361
   4       -9.049536
   5        1.855120
   6        2.636116
   7        2.879767
   8        3.099438
 
  0.2857143E+00  0.1428571E+00  0.1262379E-14  0.4081633E-01
   1      -19.608735
   2      -13.458222
   3      -10.676221
   4       -7.200732
   5        0.629791
   6        4.458069
   7        5.255999
   8        5.575420
 
  0.4285714E+00  0.1428571E+00  0.1262379E-14  0.4081633E-01
   1      -17.351613
   2      -16.325489
   3      -11.195545
   4       -5.297070
   5       -1.837751
   6        5.985524
   7        8.172999
   8        8.402015
 
 -0.4285714E+00  0.1428571E+00  0.1262379E-14  0.4081633E-01
   1      -19.608759
   2      -13.458174
   3      -10.676256
   4       -7.200757
   5        0.629817
   6        4.458036
   7        5.255967
   8        5.575388
 
 -0.2857143E+00  0.1428571E+00  0.1262379E-14  0.4081633E-01
   1      -21.477190
   2      -10.263633
   3       -9.309379
   4       -9.049558
   5        1.855101
   6        2.636097
   7        2.879748
   8        3.099417
 
 -0.1428571E+00  0.1428571E+00  0.1262379E-14  0.4081633E-01
   1      -22.432993
   2      -10.434211
   3       -8.160833
   4       -7.285959
   5        0.544068
   6        1.310773
   7        1.531763
   8        1.756992
 
  0.3742002E-15  0.2857143E+00  0.1262379E-14  0.4081633E-01
   1      -21.003443
   2      -11.751374
   3       -8.767050
   4       -8.761496
   5        2.505219
   6        2.839996
   7        3.360107
   8        3.553603
 
  0.1428571E+00  0.2857143E+00  0.1262379E-14  0.4081633E-01
   1      -19.608720
   2      -13.458164
   3      -10.676305
   4       -7.200710
   5        0.629810
   6        4.458087
   7        5.256014
   8        5.575439
 
  0.2857143E+00  0.2857143E+00  0.1262379E-14  0.4081633E-01
   1      -17.422363
   2      -14.891305
   3      -13.252760
   4       -4.880427
   5       -1.873433
   6        7.380888
   7        7.610052
   8        8.990119
 
  0.4285714E+00  0.2857143E+00  0.1262379E-14  0.4081633E-01
   1      -17.422424
   2      -14.891235
   3      -13.252770
   4       -4.880484
   5       -1.873387
   6        7.380866
   7        7.609971
   8        8.990050
 
 -0.4285714E+00  0.2857143E+00  0.1262379E-14  0.4081633E-01
   1      -19.608759
   2      -13.458175
   3      -10.676255
   4       -7.200757
   5        0.629816
   6        4.458036
   7        5.255967
   8        5.575388
 
 -0.2857143E+00  0.2857143E+00  0.1262379E-14  0.4081633E-01
   1      -21.003462
   2      -11.751431
   3       -8.767075
   4       -8.761414
   5        2.505194
   6        2.839956
   7        3.360090
   8        3.553578
 
 -0.1428571E+00  0.2857143E+00  0.1262379E-14  0.4081633E-01
   1      -21.477175
   2      -10.263659
   3       -9.309361
   4       -9.049533
   5        1.855120
   6        2.636116
   7        2.879768
   8        3.099442
 
  0.3742002E-15  0.4285714E+00  0.1262379E-14  0.4081633E-01
   1      -18.710459
   2      -15.396502
   3       -9.671380
   4       -6.393956
   5       -0.843667
   6        4.085144
   7        5.766657
   8        6.603637
 
  0.1428571E+00  0.4285714E+00  0.1262379E-14  0.4081633E-01
   1      -17.351517
   2      -16.325516
   3      -11.195627
   4       -5.296990
   5       -1.837777
   6        5.985283
   7        8.173081
   8        8.409107
 
  0.2857143E+00  0.4285714E+00  0.1262379E-14  0.4081633E-01
   1      -17.422362
   2      -14.891308
   3      -13.252758
   4       -4.880426
   5       -1.873435
   6        7.380888
   7        7.610052
   8        8.990120
 
  0.4285714E+00  0.4285714E+00  0.1262379E-14  0.4081633E-01
   1      -17.351612
   2      -16.325492
   3      -11.195544
   4       -5.297068
   5       -1.837754
   6        5.985525
   7        8.173001
   8        8.405846
 
 -0.4285714E+00  0.4285714E+00  0.1262379E-14  0.4081633E-01
   1      -18.710507
   2      -15.396534
   3       -9.671280
   4       -6.394019
   5       -0.843677
   6        4.085365
   7        5.766603
   8        6.603587
 
 -0.2857143E+00  0.4285714E+00  0.1262379E-14  0.4081633E-01
   1      -19.608735
   2      -13.458224
   3      -10.676219
   4       -7.200731
   5        0.629789
   6        4.458069
   7        5.255999
   8        5.575419
 
 -0.1428571E+00  0.4285714E+00  0.1262379E-14  0.4081633E-01
   1      -19.608720
   2      -13.458165
   3      -10.676304
   4       -7.200710
   5        0.629809
   6        4.458087
   7        5.256014
   8        5.575438
