       N       E                     dE             d eps       ncg     rms          rms(c)
DAV:   1     0.334512114141E+02    0.33451E+02   -0.27312E+03   504   0.583E+02
DAV:   2    -0.158539889948E+02   -0.49305E+02   -0.39413E+02   600   0.103E+02
DAV:   3    -0.196548515471E+02   -0.38009E+01   -0.32637E+01   568   0.380E+01
DAV:   4    -0.197488340263E+02   -0.93982E-01   -0.93982E-01   680   0.389E+00
DAV:   5    -0.197488967382E+02   -0.62712E-04   -0.62712E-04   536   0.143E-01    0.552E+00
DAV:   6    -0.188335861164E+02    0.91531E+00   -0.88447E-01   520   0.675E+00    0.291E+00
DAV:   7    -0.184813468193E+02    0.35224E+00   -0.10526E+00   576   0.723E+00    0.499E-01
DAV:   8    -0.184719425206E+02    0.94043E-02   -0.10363E-02   648   0.909E-01    0.872E-02
DAV:   9    -0.184698154777E+02    0.21270E-02   -0.16772E-03   720   0.233E-01    0.603E-02
DAV:  10    -0.184685355437E+02    0.12799E-02   -0.17865E-03   616   0.206E-01    0.274E-02
DAV:  11    -0.184687842551E+02   -0.24871E-03   -0.32013E-04   616   0.882E-02    0.130E-02
DAV:  12    -0.184694758267E+02   -0.69157E-03   -0.53434E-05   504   0.411E-02    0.835E-03
DAV:  13    -0.184701776538E+02   -0.70183E-03   -0.12860E-04   472   0.435E-02    0.326E-03
DAV:  14    -0.184703161724E+02   -0.13852E-03   -0.95043E-06   568   0.161E-02    0.243E-03
DAV:  15    -0.184703665194E+02   -0.50347E-04   -0.81700E-06   672   0.120E-02    0.903E-04
DAV:  16    -0.184703917466E+02   -0.25227E-04   -0.36664E-07   752   0.340E-03    0.375E-04
DAV:  17    -0.184703961981E+02   -0.44516E-05   -0.24671E-07   544   0.240E-03    0.255E-04
DAV:  18    -0.184703988878E+02   -0.26897E-05   -0.41641E-08   528   0.123E-03    0.761E-05
DAV:  19    -0.184703993974E+02   -0.50961E-06   -0.36862E-09   640   0.454E-04
   1 F= -.18470399E+02 E0= -.18470399E+02  d E =-.184704E+02
