<?xml version="1.0" encoding="ISO-8859-1"?>
<modeling>
 <generator>
  <i name="program" type="string">vasp </i>
  <i name="version" type="string">5.2.12  </i>
  <i name="subversion" type="string">11Nov11 complex                                                      parallel </i>
  <i name="platform" type="string">LinuxIFC </i>
  <i name="date" type="string">2012 06 25 </i>
  <i name="time" type="string">21:46:21 </i>
 </generator>
 <incar>
  <i type="string" name="SYSTEM"> "graphene"</i>
  <i type="string" name="PREC">accurate</i>
  <i type="int" name="NELMIN">     4</i>
  <i type="int" name="IBRION">     2</i>
  <i name="EDIFF">      0.00000100</i>
  <i name="EDIFFG">     -0.01000000</i>
  <i type="int" name="NSW">   100</i>
  <i type="int" name="ISIF">     2</i>
  <i name="SYMPREC">      0.00000010</i>
  <i type="int" name="ISMEAR">     0</i>
  <i name="SIGMA">      0.10000000</i>
 </incar>
 <kpoints>
  <generation param="Gamma">
   <v type="int" name="divisions">       7        7        1 </v>
   <v name="usershift">      0.00000000       0.00000000       0.00000000 </v>
   <v name="genvec1">      0.14285714       0.00000000       0.00000000 </v>
   <v name="genvec2">      0.00000000       0.14285714       0.00000000 </v>
   <v name="genvec3">      0.00000000       0.00000000       1.00000000 </v>
   <v name="shift">      0.00000000       0.00000000       0.00000000 </v>
  </generation>
  <varray name="kpointlist" >
   <v>       0.00000000       0.00000000       0.00000000 </v>
   <v>       0.14285714       0.00000000       0.00000000 </v>
   <v>       0.28571429       0.00000000       0.00000000 </v>
   <v>       0.42857143       0.00000000       0.00000000 </v>
   <v>       0.00000000       0.14285714       0.00000000 </v>
   <v>       0.14285714       0.14285714       0.00000000 </v>
   <v>       0.28571429       0.14285714       0.00000000 </v>
   <v>       0.42857143       0.14285714       0.00000000 </v>
   <v>      -0.42857143       0.14285714       0.00000000 </v>
   <v>      -0.28571429       0.14285714       0.00000000 </v>
   <v>      -0.14285714       0.14285714       0.00000000 </v>
   <v>       0.00000000       0.28571429       0.00000000 </v>
   <v>       0.14285714       0.28571429       0.00000000 </v>
   <v>       0.28571429       0.28571429       0.00000000 </v>
   <v>       0.42857143       0.28571429       0.00000000 </v>
   <v>      -0.42857143       0.28571429       0.00000000 </v>
   <v>      -0.28571429       0.28571429       0.00000000 </v>
   <v>      -0.14285714       0.28571429       0.00000000 </v>
   <v>       0.00000000       0.42857143       0.00000000 </v>
   <v>       0.14285714       0.42857143       0.00000000 </v>
   <v>       0.28571429       0.42857143       0.00000000 </v>
   <v>       0.42857143       0.42857143       0.00000000 </v>
   <v>      -0.42857143       0.42857143       0.00000000 </v>
   <v>      -0.28571429       0.42857143       0.00000000 </v>
   <v>      -0.14285714       0.42857143       0.00000000 </v>
  </varray>
  <varray name="weights" >
   <v>       0.02040816 </v>
   <v>       0.04081633 </v>
   <v>       0.04081633 </v>
   <v>       0.04081633 </v>
   <v>       0.04081633 </v>
   <v>       0.04081633 </v>
   <v>       0.04081633 </v>
   <v>       0.04081633 </v>
   <v>       0.04081633 </v>
   <v>       0.04081633 </v>
   <v>       0.04081633 </v>
   <v>       0.04081633 </v>
   <v>       0.04081633 </v>
   <v>       0.04081633 </v>
   <v>       0.04081633 </v>
   <v>       0.04081633 </v>
   <v>       0.04081633 </v>
   <v>       0.04081633 </v>
   <v>       0.04081633 </v>
   <v>       0.04081633 </v>
   <v>       0.04081633 </v>
   <v>       0.04081633 </v>
   <v>       0.04081633 </v>
   <v>       0.04081633 </v>
   <v>       0.04081633 </v>
  </varray>
 </kpoints>
 <parameters>
  <separator name="general" >
   <i type="string" name="SYSTEM">"graphene"</i>
   <i type="logical" name="LCOMPAT"> F  </i>
  </separator>
  <separator name="electronic" >
   <i type="string" name="PREC">accura</i>
   <i name="ENMAX">    400.00000000</i>
   <i name="ENAUG">    644.87300000</i>
   <i name="EDIFF">      0.00000100</i>
   <i type="int" name="IALGO">    38</i>
   <i type="int" name="IWAVPR">    11</i>
   <i type="int" name="NBANDS">     8</i>
   <i name="NELECT">      8.00000000</i>
   <i type="int" name="TURBO">     0</i>
   <i type="int" name="IRESTART">     0</i>
   <i type="int" name="NREBOOT">     0</i>
   <i type="int" name="NMIN">     0</i>
   <i name="EREF">      0.00000000</i>
   <separator name="electronic smearing" >
    <i type="int" name="ISMEAR">     0</i>
    <i name="SIGMA">      0.10000000</i>
    <i name="KSPACING">      0.50000000</i>
    <i type="logical" name="KGAMMA"> T  </i>
   </separator>
   <separator name="electronic projectors" >
    <i type="logical" name="LREAL"> F  </i>
    <v name="ROPT">      0.00000000</v>
    <i type="int" name="LMAXPAW">  -100</i>
    <i type="int" name="LMAXMIX">     2</i>
    <i type="logical" name="NLSPLINE"> F  </i>
   </separator>
   <separator name="electronic startup" >
    <i type="int" name="ISTART">     0</i>
    <i type="int" name="ICHARG">     2</i>
    <i type="int" name="INIWAV">     1</i>
   </separator>
   <separator name="electronic spin" >
    <i type="int" name="ISPIN">     1</i>
    <i type="logical" name="LNONCOLLINEAR"> F  </i>
    <v name="MAGMOM">      1.00000000      1.00000000</v>
    <i name="NUPDOWN">     -1.00000000</i>
    <i type="logical" name="LSORBIT"> F  </i>
    <v name="SAXIS">      0.00000000      0.00000000      1.00000000</v>
    <i type="logical" name="LSPIRAL"> F  </i>
    <v name="QSPIRAL">      0.00000000      0.00000000      0.00000000</v>
    <i type="logical" name="LZEROZ"> F  </i>
   </separator>
   <separator name="electronic exchange-correlation" >
    <i type="logical" name="LASPH"> F  </i>
    <i type="logical" name="LMETAGGA"> F  </i>
   </separator>
   <separator name="electronic convergence" >
    <i type="int" name="NELM">    60</i>
    <i type="int" name="NELMDL">    -5</i>
    <i type="int" name="NELMIN">     4</i>
    <i name="ENINI">    400.00000000</i>
    <separator name="electronic convergence detail" >
     <i type="logical" name="LDIAG"> T  </i>
     <i type="logical" name="LSUBROT"> T  </i>
     <i name="WEIMIN">      0.00100000</i>
     <i name="EBREAK">      0.00000003</i>
     <i name="DEPER">      0.30000000</i>
     <i type="int" name="NRMM">     4</i>
     <i name="TIME">      0.40000000</i>
    </separator>
   </separator>
   <separator name="electronic mixer" >
    <i name="AMIX">      0.40000000</i>
    <i name="BMIX">      1.00000000</i>
    <i name="AMIN">      0.10000000</i>
    <i name="AMIX_MAG">      1.60000000</i>
    <i name="BMIX_MAG">      1.00000000</i>
    <separator name="electronic mixer details" >
     <i type="int" name="IMIX">     4</i>
     <i type="int" name="MAXMIX">   -45</i>
     <i name="WC">    100.00000000</i>
     <i type="int" name="INIMIX">     1</i>
     <i type="int" name="MIXPRE">     1</i>
     <i type="int" name="MREMOVE">     5</i>
    </separator>
   </separator>
   <separator name="electronic dipolcorrection" >
    <i type="logical" name="LDIPOL"> F  </i>
    <i type="logical" name="LMONO"> F  </i>
    <i type="int" name="IDIPOL">     0</i>
    <i name="EPSILON">      1.00000000</i>
    <v name="DIPOL">   -100.00000000   -100.00000000   -100.00000000</v>
    <i name="EFIELD">      0.00000000</i>
   </separator>
  </separator>
  <separator name="grids" >
   <i type="int" name="NGX">    16</i>
   <i type="int" name="NGY">    16</i>
   <i type="int" name="NGZ">   240</i>
   <i type="int" name="NGXF">    32</i>
   <i type="int" name="NGYF">    32</i>
   <i type="int" name="NGZF">   480</i>
   <i type="logical" name="ADDGRID"> F  </i>
  </separator>
  <separator name="ionic" >
   <i type="int" name="NSW">   100</i>
   <i type="int" name="IBRION">     2</i>
   <i type="int" name="ISIF">     2</i>
   <i name="PSTRESS">      0.00000000</i>
   <i name="EDIFFG">     -0.01000000</i>
   <i type="int" name="NFREE">     1</i>
   <i name="POTIM">      0.50000000</i>
   <i name="SMASS">     -3.00000000</i>
   <i name="SCALEE">      1.00000000</i>
  </separator>
  <separator name="ionic md" >
   <i name="TEBEG">      0.00010000</i>
   <i name="TEEND">      0.00010000</i>
   <i type="int" name="NBLOCK">     1</i>
   <i type="int" name="KBLOCK">   100</i>
   <i type="int" name="NPACO">   256</i>
   <i name="APACO">     16.00000000</i>
  </separator>
  <separator name="symmetry" >
   <i type="int" name="ISYM">     2</i>
   <i name="SYMPREC">      0.00000010</i>
  </separator>
  <separator name="dos" >
   <i type="logical" name="LORBIT"> F  </i>
   <v name="RWIGS">     -1.00000000</v>
   <i type="int" name="NEDOS">   301</i>
   <i name="EMIN">     10.00000000</i>
   <i name="EMAX">    -10.00000000</i>
   <i name="EFERMI">      0.00000000</i>
  </separator>
  <separator name="writing" >
   <i type="int" name="NWRITE">     2</i>
   <i type="logical" name="LWAVE"> T  </i>
   <i type="logical" name="LCHARG"> T  </i>
   <i type="logical" name="LPARD"> F  </i>
   <i type="logical" name="LVTOT"> F  </i>
   <i type="logical" name="LVHAR"> F  </i>
   <i type="logical" name="LELF"> F  </i>
   <i type="logical" name="LOPTICS"> F  </i>
   <v name="STM">      0.00000000      0.00000000      0.00000000      0.00000000      0.00000000      0.00000000      0.00000000</v>
  </separator>
  <separator name="performance" >
   <i type="int" name="NPAR">     2</i>
   <i type="int" name="NSIM">     4</i>
   <i type="int" name="NBLK">    -1</i>
   <i type="logical" name="LPLANE"> T  </i>
   <i type="logical" name="LSCALAPACK"> F  </i>
   <i type="logical" name="LSCAAWARE"> F  </i>
   <i type="logical" name="LSCALU"> F  </i>
   <i type="logical" name="LASYNC"> F  </i>
   <i type="logical" name="LORBITALREAL"> F  </i>
  </separator>
  <separator name="miscellaneous" >
   <i type="int" name="IDIOT">     3</i>
   <i type="logical" name="LMUSIC"> F  </i>
   <v name="POMASS">     12.01100000</v>
   <v name="DARWINR">      0.00000000</v>
   <v name="DARWINV">      1.00000000</v>
   <i type="logical" name="LCORR"> T  </i>
  </separator>
  <i type="logical" name="GGA_COMPAT"> T  </i>
  <i type="logical" name="LBERRY"> F  </i>
  <i type="int" name="ICORELEVEL">     0</i>
  <i type="logical" name="LDAU"> F  </i>
  <i type="int" name="I_CONSTRAINED_M">     0</i>
  <separator name="electronic exchange-correlation" >
   <i type="string" name="GGA">--</i>
   <i type="int" name="VOSKOWN">     0</i>
   <i type="logical" name="LHFCALC"> F  </i>
   <i type="string" name="PRECFOCK"></i>
   <i type="logical" name="LHFONE"> F  </i>
   <i type="logical" name="LRHFCALC"> F  </i>
   <i type="logical" name="LTHOMAS"> F  </i>
   <i type="logical" name="LMODELHF"> F  </i>
   <i name="ENCUT4O">     -1.00000000</i>
   <i type="int" name="EXXOEP">     0</i>
   <i type="int" name="FOURORBIT">     0</i>
   <i name="AEXX">      0.00000000</i>
   <i name="HFALPHA">      0.00000000</i>
   <i name="ALDAX">      1.00000000</i>
   <i name="AGGAX">      1.00000000</i>
   <i name="ALDAC">      1.00000000</i>
   <i name="AGGAC">      1.00000000</i>
   <i type="int" name="NKREDX">     1</i>
   <i type="int" name="NKREDY">     1</i>
   <i type="int" name="NKREDZ">     1</i>
   <i type="logical" name="SHIFTRED"> F  </i>
   <i type="logical" name="ODDONLY"> F  </i>
   <i type="logical" name="EVENONLY"> F  </i>
   <i type="int" name="LMAXFOCK">     0</i>
   <i type="int" name="NMAXFOCKAE">     0</i>
   <i type="logical" name="LFOCKAEDFT"> F  </i>
   <i name="HFSCREEN">      0.00000000</i>
   <i name="HFSCREENC">      0.00000000</i>
  </separator>
  <separator name="vdW DFT" >
   <i type="logical" name="LUSE_VDW"> F  </i>
   <i name="Zab_VDW">     -0.84910000</i>
   <i name="PARAM1">      0.12340000</i>
   <i name="PARAM2">      1.00000000</i>
   <i name="PARAM3">      0.00000000</i>
  </separator>
  <separator name="model GW" >
   <i type="int" name="MODEL_GW">     0</i>
   <i name="MODEL_EPS0">     54.39933176</i>
   <i name="MODEL_ALPHA">      1.00000000</i>
  </separator>
  <separator name="linear response parameters" >
   <i type="logical" name="LEPSILON"> F  </i>
   <i type="logical" name="LRPA"> F  </i>
   <i type="logical" name="LNABLA"> F  </i>
   <i type="logical" name="LVEL"> F  </i>
   <i type="int" name="KINTER">     0</i>
   <i name="CSHIFT">      0.10000000</i>
   <i name="OMEGAMAX">     -1.00000000</i>
  </separator>
  <separator name="orbital magnetization" >
   <i type="logical" name="NUCIND"> F  </i>
   <v name="MAGPOS">      0.00000000      0.00000000      0.00000000</v>
   <i type="logical" name="LNICSALL"> T  </i>
   <i type="logical" name="ORBITALMAG"> F  </i>
   <i type="logical" name="LMAGBLOCH"> F  </i>
   <i type="logical" name="LCHIMAG"> F  </i>
   <i type="logical" name="LGAUGE"> T  </i>
   <i type="int" name="MAGATOM">     0</i>
   <v name="MAGDIPOL">      0.00000000      0.00000000      0.00000000</v>
   <v name="AVECCONST">      0.00000000      0.00000000      0.00000000</v>
  </separator>
  <separator name="response functions" >
   <i type="logical" name="LADDER"> F  </i>
   <i type="logical" name="LHARTREE"> T  </i>
   <i type="int" name="IBSE">     0</i>
   <i type="logical" name="LTCTE"> F  </i>
   <i type="logical" name="LTETE"> F  </i>
   <i type="logical" name="LFXCEPS"> F  </i>
   <i type="logical" name="L2ORDER"> F  </i>
   <i type="logical" name="LUSEW"> F  </i>
   <i name="ENCUTGW">     -2.00000000</i>
   <i name="ENCUTGWSOFT">     -2.00000000</i>
   <i name="ENCUTLF">     -1.00000000</i>
   <i type="int" name="LMAXMP2">    -1</i>
   <i name="SCISSOR">      0.00000000</i>
   <i type="int" name="NOMEGA">     0</i>
   <i type="int" name="NOMEGAR">     0</i>
   <i type="int" name="NBANDSGW">    -1</i>
   <i type="int" name="NBANDSO">    -1</i>
   <i type="int" name="NBANDSV">    -1</i>
   <i name="OPTEMAX">      0.00000000</i>
   <i type="int" name="NELM">     1</i>
   <i type="int" name="DIM">     3</i>
   <i type="int" name="ANTIRES">     0</i>
   <i name="OMEGAMAX">    -30.00000000</i>
   <i name="OMEGATL">   -200.00000000</i>
   <i type="int" name="OMEGAGRID">     0</i>
   <i name="CSHIFT">     -0.10000000</i>
   <i type="logical" name="SELFENERGY"> F  </i>
   <i type="logical" name="LSPECTRAL"> F  </i>
   <i type="logical" name="ODDONLYGW"> F  </i>
   <i type="logical" name="EVENONLYGW"> F  </i>
   <i type="int" name="NKREDLFX">     1</i>
   <i type="int" name="NKREDLFY">     1</i>
   <i type="int" name="NKREDLFZ">     1</i>
   <i type="int" name="MAXMEM">  1800</i>
   <i type="int" name="TELESCOPE">     0</i>
  </separator>
 </parameters>
 <atominfo>
  <atoms>       2 </atoms>
  <types>       1 </types>
  <array name="atoms" >
   <dimension dim="1">ion</dimension>
   <field type="string">element</field>
   <field type="int">atomtype</field>
   <set>
    <rc><c>C </c><c>   1</c></rc>
    <rc><c>C </c><c>   1</c></rc>
   </set>
  </array>
  <array name="atomtypes" >
   <dimension dim="1">type</dimension>
   <field type="int">atomspertype</field>
   <field type="string">element</field>
   <field>mass</field>
   <field>valence</field>
   <field type="string">pseudopotential</field>
   <set>
    <rc><c>   2</c><c>C </c><c>     12.01100000</c><c>      4.00000000</c><c> PAW_PBE C 08Apr2002                    </c></rc>
   </set>
  </array>
 </atominfo>
 <structure name="initialpos" >
  <crystal>
   <varray name="basis" >
    <v>       2.46380000       0.00000000       0.00000000 </v>
    <v>      -1.23190000       2.13370008       0.00000000 </v>
    <v>       0.00000000       0.00000000      34.49320000 </v>
   </varray>
   <i name="volume">    181.33110586 </i>
   <varray name="rec_basis" >
    <v>       0.40587710       0.23433472       0.00000000 </v>
    <v>       0.00000000       0.46866943       0.00000000 </v>
    <v>       0.00000000       0.00000000       0.02899122 </v>
   </varray>
  </crystal>
  <varray name="positions" >
   <v>       0.00000000       0.00000000       0.00000000 </v>
   <v>       0.33333330       0.66666670       0.00000000 </v>
  </varray>
  <varray name="selective"  type="logical" >
   <v type="logical" >  T  T  F </v>
   <v type="logical" >  T  T  F </v>
  </varray>
  <nose>
   <v>      -3.00000000       0.00000000       0.00010000       0.00010000 </v>
  </nose>
 </structure>
 <calculation>
  <scstep>
   <time name="dav">    3.14    3.15</time>
   <time name="total">    3.50    3.52</time>
   <energy>
    <i name="alphaZ">      1.79737864 </i>
    <i name="ewald">   2627.90694320 </i>
    <i name="hartreedc">  -2832.53887645 </i>
    <i name="XCdc">     27.56689032 </i>
    <i name="pawpsdc">     75.66288619 </i>
    <i name="pawaedc">    -77.96384553 </i>
    <i name="eentropy">     -0.00737457 </i>
    <i name="bandstr">    -83.22723813 </i>
    <i name="atom">    294.25444774 </i>
    <i name="e_fr_energy">     33.45121141 </i>
    <i name="e_wo_entrp">     33.45858599 </i>
    <i name="e_0_energy">     33.45489870 </i>
   </energy>
  </scstep>
  <scstep>
   <time name="dav">    3.71    3.73</time>
   <time name="total">    3.71    3.73</time>
   <energy>
    <i name="e_fr_energy">    -15.85398899 </i>
    <i name="e_wo_entrp">    -15.85398614 </i>
    <i name="e_0_energy">    -15.85398757 </i>
   </energy>
  </scstep>
  <scstep>
   <time name="dav">    3.44    3.45</time>
   <time name="total">    3.44    3.45</time>
   <energy>
    <i name="e_fr_energy">    -19.65485155 </i>
    <i name="e_wo_entrp">    -19.65485155 </i>
    <i name="e_0_energy">    -19.65485155 </i>
   </energy>
  </scstep>
  <scstep>
   <time name="dav">    3.94    3.96</time>
   <time name="total">    3.94    3.96</time>
   <energy>
    <i name="e_fr_energy">    -19.74883403 </i>
    <i name="e_wo_entrp">    -19.74883403 </i>
    <i name="e_0_energy">    -19.74883403 </i>
   </energy>
  </scstep>
  <scstep>
   <time name="dav">    3.42    3.43</time>
   <time name="total">    3.64    3.66</time>
   <energy>
    <i name="e_fr_energy">    -19.74889674 </i>
    <i name="e_wo_entrp">    -19.74889674 </i>
    <i name="e_0_energy">    -19.74889674 </i>
   </energy>
  </scstep>
  <scstep>
   <time name="dav">    3.24    3.25</time>
   <time name="total">    3.82    3.83</time>
   <energy>
    <i name="e_fr_energy">    -18.83358612 </i>
    <i name="e_wo_entrp">    -18.83358612 </i>
    <i name="e_0_energy">    -18.83358612 </i>
   </energy>
  </scstep>
  <scstep>
   <time name="dav">    3.40    3.42</time>
   <time name="total">    3.95    3.96</time>
   <energy>
    <i name="e_fr_energy">    -18.48134682 </i>
    <i name="e_wo_entrp">    -18.48134682 </i>
    <i name="e_0_energy">    -18.48134682 </i>
   </energy>
  </scstep>
  <scstep>
   <time name="dav">    3.88    3.89</time>
   <time name="total">    4.41    4.43</time>
   <energy>
    <i name="e_fr_energy">    -18.47194252 </i>
    <i name="e_wo_entrp">    -18.47194252 </i>
    <i name="e_0_energy">    -18.47194252 </i>
   </energy>
  </scstep>
  <scstep>
   <time name="dav">    4.05    4.09</time>
   <time name="total">    4.60    4.64</time>
   <energy>
    <i name="e_fr_energy">    -18.46981548 </i>
    <i name="e_wo_entrp">    -18.46981548 </i>
    <i name="e_0_energy">    -18.46981548 </i>
   </energy>
  </scstep>
  <scstep>
   <time name="dav">    3.56    3.57</time>
   <time name="total">    4.10    4.12</time>
   <energy>
    <i name="e_fr_energy">    -18.46853554 </i>
    <i name="e_wo_entrp">    -18.46853554 </i>
    <i name="e_0_energy">    -18.46853554 </i>
   </energy>
  </scstep>
  <scstep>
   <time name="dav">    3.58    3.59</time>
   <time name="total">    4.12    4.14</time>
   <energy>
    <i name="e_fr_energy">    -18.46878426 </i>
    <i name="e_wo_entrp">    -18.46878426 </i>
    <i name="e_0_energy">    -18.46878426 </i>
   </energy>
  </scstep>
  <scstep>
   <time name="dav">    3.08    3.10</time>
   <time name="total">    3.62    3.64</time>
   <energy>
    <i name="e_fr_energy">    -18.46947583 </i>
    <i name="e_wo_entrp">    -18.46947583 </i>
    <i name="e_0_energy">    -18.46947583 </i>
   </energy>
  </scstep>
  <scstep>
   <time name="dav">    2.91    2.92</time>
   <time name="total">    3.45    3.46</time>
   <energy>
    <i name="e_fr_energy">    -18.47017765 </i>
    <i name="e_wo_entrp">    -18.47017765 </i>
    <i name="e_0_energy">    -18.47017765 </i>
   </energy>
  </scstep>
  <scstep>
   <time name="dav">    3.34    3.35</time>
   <time name="total">    3.88    3.89</time>
   <energy>
    <i name="e_fr_energy">    -18.47031617 </i>
    <i name="e_wo_entrp">    -18.47031617 </i>
    <i name="e_0_energy">    -18.47031617 </i>
   </energy>
  </scstep>
  <scstep>
   <time name="dav">    3.78    3.80</time>
   <time name="total">    4.33    4.35</time>
   <energy>
    <i name="e_fr_energy">    -18.47036652 </i>
    <i name="e_wo_entrp">    -18.47036652 </i>
    <i name="e_0_energy">    -18.47036652 </i>
   </energy>
  </scstep>
  <scstep>
   <time name="dav">    4.14    4.16</time>
   <time name="total">    4.69    4.70</time>
   <energy>
    <i name="e_fr_energy">    -18.47039175 </i>
    <i name="e_wo_entrp">    -18.47039175 </i>
    <i name="e_0_energy">    -18.47039175 </i>
   </energy>
  </scstep>
  <scstep>
   <time name="dav">    3.25    3.26</time>
   <time name="total">    3.80    3.81</time>
   <energy>
    <i name="e_fr_energy">    -18.47039620 </i>
    <i name="e_wo_entrp">    -18.47039620 </i>
    <i name="e_0_energy">    -18.47039620 </i>
   </energy>
  </scstep>
  <scstep>
   <time name="dav">    3.15    3.16</time>
   <time name="total">    3.69    3.71</time>
   <energy>
    <i name="e_fr_energy">    -18.47039889 </i>
    <i name="e_wo_entrp">    -18.47039889 </i>
    <i name="e_0_energy">    -18.47039889 </i>
   </energy>
  </scstep>
  <scstep>
   <time name="dav">    3.67    3.69</time>
   <time name="total">    4.00    4.02</time>
   <energy>
    <i name="alphaZ">      1.79737864 </i>
    <i name="ewald">   2627.90694320 </i>
    <i name="hartreedc">  -2868.43708141 </i>
    <i name="XCdc">     28.78209168 </i>
    <i name="pawpsdc">    139.88512944 </i>
    <i name="pawaedc">   -142.45645066 </i>
    <i name="eentropy">      0.00000000 </i>
    <i name="bandstr">   -100.20285804 </i>
    <i name="atom">    294.25444774 </i>
    <i name="e_fr_energy">    -18.47039940 </i>
    <i name="e_wo_entrp">    -18.47039940 </i>
    <i name="e_0_energy">    -18.47039940 </i>
   </energy>
  </scstep>
  <parameters_embedded>
   <separator name="dft+d2" >
    <i type="logical" name="LVDW"> F  </i>
   </separator>
  </parameters_embedded>
  <structure>
   <crystal>
    <varray name="basis" >
     <v>       2.46380000       0.00000000       0.00000000 </v>
     <v>      -1.23190000       2.13370008       0.00000000 </v>
     <v>       0.00000000       0.00000000      34.49320000 </v>
    </varray>
    <i name="volume">    181.33110586 </i>
    <varray name="rec_basis" >
     <v>       0.40587710       0.23433472       0.00000000 </v>
     <v>       0.00000000       0.46866943       0.00000000 </v>
     <v>       0.00000000       0.00000000       0.02899122 </v>
    </varray>
   </crystal>
   <varray name="positions" >
    <v>       0.00000000       0.00000000       0.00000000 </v>
    <v>       0.33333330       0.66666670       0.00000000 </v>
   </varray>
  </structure>
  <varray name="forces" >
   <v>      -0.00000747      -0.00007719       0.00000000 </v>
   <v>       0.00000747       0.00007719       0.00000000 </v>
  </varray>
  <varray name="stress" >
   <v>      -0.01322365       0.00003709       0.00000000 </v>
   <v>       0.00003714      -0.00743120       0.00000000 </v>
   <v>       0.00000000       0.00000000      -2.50979693 </v>
  </varray>
  <energy>
   <i name="e_fr_energy">    -18.47039940 </i>
   <i name="e_wo_entrp">    -18.47039940 </i>
   <i name="e_0_energy">      0.00000000 </i>
  </energy>
  <time name="totalsc">   76.54   76.87</time>
  <eigenvalues>
   <array>
    <dimension dim="1">band</dimension>
    <dimension dim="2">kpoint</dimension>
    <dimension dim="3">spin</dimension>
    <field>eigene</field>
    <field>occ</field>
    <set>
     <set comment="spin 1">
      <set comment="kpoint 1">
       <r>  -22.9151    1.0000 </r>
       <r>  -11.0084    1.0000 </r>
       <r>   -6.4018    1.0000 </r>
       <r>   -6.4017    1.0000 </r>
       <r>   -0.1116    0.0000 </r>
       <r>    0.6455    0.0000 </r>
       <r>    0.8578    0.0000 </r>
       <r>    1.0853    0.0000 </r>
      </set>
      <set comment="kpoint 2">
       <r>  -22.4330    1.0000 </r>
       <r>  -10.4342    1.0000 </r>
       <r>   -8.1608    1.0000 </r>
       <r>   -7.2860    1.0000 </r>
       <r>    0.5441    0.0000 </r>
       <r>    1.3108    0.0000 </r>
       <r>    1.5318    0.0000 </r>
       <r>    1.7570    0.0000 </r>
      </set>
      <set comment="kpoint 3">
       <r>  -21.0035    1.0000 </r>
       <r>  -11.7514    1.0000 </r>
       <r>   -8.7671    1.0000 </r>
       <r>   -8.7614    1.0000 </r>
       <r>    2.5052    0.0000 </r>
       <r>    2.8400    0.0000 </r>
       <r>    3.3601    0.0000 </r>
       <r>    3.5536    0.0000 </r>
      </set>
      <set comment="kpoint 4">
       <r>  -18.7105    1.0000 </r>
       <r>  -15.3965    1.0000 </r>
       <r>   -9.6713    1.0000 </r>
       <r>   -6.3940    1.0000 </r>
       <r>   -0.8437    0.0000 </r>
       <r>    4.0854    0.0000 </r>
       <r>    5.7666    0.0000 </r>
       <r>    6.6036    0.0000 </r>
      </set>
      <set comment="kpoint 5">
       <r>  -22.4330    1.0000 </r>
       <r>  -10.4342    1.0000 </r>
       <r>   -8.1608    1.0000 </r>
       <r>   -7.2860    1.0000 </r>
       <r>    0.5441    0.0000 </r>
       <r>    1.3108    0.0000 </r>
       <r>    1.5318    0.0000 </r>
       <r>    1.7570    0.0000 </r>
      </set>
      <set comment="kpoint 6">
       <r>  -21.4772    1.0000 </r>
       <r>  -10.2637    1.0000 </r>
       <r>   -9.3094    1.0000 </r>
       <r>   -9.0495    1.0000 </r>
       <r>    1.8551    0.0000 </r>
       <r>    2.6361    0.0000 </r>
       <r>    2.8798    0.0000 </r>
       <r>    3.0994    0.0000 </r>
      </set>
      <set comment="kpoint 7">
       <r>  -19.6087    1.0000 </r>
       <r>  -13.4582    1.0000 </r>
       <r>  -10.6762    1.0000 </r>
       <r>   -7.2007    1.0000 </r>
       <r>    0.6298    0.0000 </r>
       <r>    4.4581    0.0000 </r>
       <r>    5.2560    0.0000 </r>
       <r>    5.5754    0.0000 </r>
      </set>
      <set comment="kpoint 8">
       <r>  -17.3516    1.0000 </r>
       <r>  -16.3255    1.0000 </r>
       <r>  -11.1955    1.0000 </r>
       <r>   -5.2971    1.0000 </r>
       <r>   -1.8378    0.0000 </r>
       <r>    5.9855    0.0000 </r>
       <r>    8.1730    0.0000 </r>
       <r>    8.4020    0.0000 </r>
      </set>
      <set comment="kpoint 9">
       <r>  -19.6088    1.0000 </r>
       <r>  -13.4582    1.0000 </r>
       <r>  -10.6763    1.0000 </r>
       <r>   -7.2008    1.0000 </r>
       <r>    0.6298    0.0000 </r>
       <r>    4.4580    0.0000 </r>
       <r>    5.2560    0.0000 </r>
       <r>    5.5754    0.0000 </r>
      </set>
      <set comment="kpoint 10">
       <r>  -21.4772    1.0000 </r>
       <r>  -10.2636    1.0000 </r>
       <r>   -9.3094    1.0000 </r>
       <r>   -9.0496    1.0000 </r>
       <r>    1.8551    0.0000 </r>
       <r>    2.6361    0.0000 </r>
       <r>    2.8797    0.0000 </r>
       <r>    3.0994    0.0000 </r>
      </set>
      <set comment="kpoint 11">
       <r>  -22.4330    1.0000 </r>
       <r>  -10.4342    1.0000 </r>
       <r>   -8.1608    1.0000 </r>
       <r>   -7.2860    1.0000 </r>
       <r>    0.5441    0.0000 </r>
       <r>    1.3108    0.0000 </r>
       <r>    1.5318    0.0000 </r>
       <r>    1.7570    0.0000 </r>
      </set>
      <set comment="kpoint 12">
       <r>  -21.0034    1.0000 </r>
       <r>  -11.7514    1.0000 </r>
       <r>   -8.7670    1.0000 </r>
       <r>   -8.7615    1.0000 </r>
       <r>    2.5052    0.0000 </r>
       <r>    2.8400    0.0000 </r>
       <r>    3.3601    0.0000 </r>
       <r>    3.5536    0.0000 </r>
      </set>
      <set comment="kpoint 13">
       <r>  -19.6087    1.0000 </r>
       <r>  -13.4582    1.0000 </r>
       <r>  -10.6763    1.0000 </r>
       <r>   -7.2007    1.0000 </r>
       <r>    0.6298    0.0000 </r>
       <r>    4.4581    0.0000 </r>
       <r>    5.2560    0.0000 </r>
       <r>    5.5754    0.0000 </r>
      </set>
      <set comment="kpoint 14">
       <r>  -17.4224    1.0000 </r>
       <r>  -14.8913    1.0000 </r>
       <r>  -13.2528    1.0000 </r>
       <r>   -4.8804    1.0000 </r>
       <r>   -1.8734    0.0000 </r>
       <r>    7.3809    0.0000 </r>
       <r>    7.6101    0.0000 </r>
       <r>    8.9901    0.0000 </r>
      </set>
      <set comment="kpoint 15">
       <r>  -17.4224    1.0000 </r>
       <r>  -14.8912    1.0000 </r>
       <r>  -13.2528    1.0000 </r>
       <r>   -4.8805    1.0000 </r>
       <r>   -1.8734    0.0000 </r>
       <r>    7.3809    0.0000 </r>
       <r>    7.6100    0.0000 </r>
       <r>    8.9901    0.0000 </r>
      </set>
      <set comment="kpoint 16">
       <r>  -19.6088    1.0000 </r>
       <r>  -13.4582    1.0000 </r>
       <r>  -10.6763    1.0000 </r>
       <r>   -7.2008    1.0000 </r>
       <r>    0.6298    0.0000 </r>
       <r>    4.4580    0.0000 </r>
       <r>    5.2560    0.0000 </r>
       <r>    5.5754    0.0000 </r>
      </set>
      <set comment="kpoint 17">
       <r>  -21.0035    1.0000 </r>
       <r>  -11.7514    1.0000 </r>
       <r>   -8.7671    1.0000 </r>
       <r>   -8.7614    1.0000 </r>
       <r>    2.5052    0.0000 </r>
       <r>    2.8400    0.0000 </r>
       <r>    3.3601    0.0000 </r>
       <r>    3.5536    0.0000 </r>
      </set>
      <set comment="kpoint 18">
       <r>  -21.4772    1.0000 </r>
       <r>  -10.2637    1.0000 </r>
       <r>   -9.3094    1.0000 </r>
       <r>   -9.0495    1.0000 </r>
       <r>    1.8551    0.0000 </r>
       <r>    2.6361    0.0000 </r>
       <r>    2.8798    0.0000 </r>
       <r>    3.0994    0.0000 </r>
      </set>
      <set comment="kpoint 19">
       <r>  -18.7105    1.0000 </r>
       <r>  -15.3965    1.0000 </r>
       <r>   -9.6714    1.0000 </r>
       <r>   -6.3940    1.0000 </r>
       <r>   -0.8437    0.0000 </r>
       <r>    4.0851    0.0000 </r>
       <r>    5.7667    0.0000 </r>
       <r>    6.6036    0.0000 </r>
      </set>
      <set comment="kpoint 20">
       <r>  -17.3515    1.0000 </r>
       <r>  -16.3255    1.0000 </r>
       <r>  -11.1956    1.0000 </r>
       <r>   -5.2970    1.0000 </r>
       <r>   -1.8378    0.0000 </r>
       <r>    5.9853    0.0000 </r>
       <r>    8.1731    0.0000 </r>
       <r>    8.4091    0.0000 </r>
      </set>
      <set comment="kpoint 21">
       <r>  -17.4224    1.0000 </r>
       <r>  -14.8913    1.0000 </r>
       <r>  -13.2528    1.0000 </r>
       <r>   -4.8804    1.0000 </r>
       <r>   -1.8734    0.0000 </r>
       <r>    7.3809    0.0000 </r>
       <r>    7.6101    0.0000 </r>
       <r>    8.9901    0.0000 </r>
      </set>
      <set comment="kpoint 22">
       <r>  -17.3516    1.0000 </r>
       <r>  -16.3255    1.0000 </r>
       <r>  -11.1955    1.0000 </r>
       <r>   -5.2971    1.0000 </r>
       <r>   -1.8378    0.0000 </r>
       <r>    5.9855    0.0000 </r>
       <r>    8.1730    0.0000 </r>
       <r>    8.4058    0.0000 </r>
      </set>
      <set comment="kpoint 23">
       <r>  -18.7105    1.0000 </r>
       <r>  -15.3965    1.0000 </r>
       <r>   -9.6713    1.0000 </r>
       <r>   -6.3940    1.0000 </r>
       <r>   -0.8437    0.0000 </r>
       <r>    4.0854    0.0000 </r>
       <r>    5.7666    0.0000 </r>
       <r>    6.6036    0.0000 </r>
      </set>
      <set comment="kpoint 24">
       <r>  -19.6087    1.0000 </r>
       <r>  -13.4582    1.0000 </r>
       <r>  -10.6762    1.0000 </r>
       <r>   -7.2007    1.0000 </r>
       <r>    0.6298    0.0000 </r>
       <r>    4.4581    0.0000 </r>
       <r>    5.2560    0.0000 </r>
       <r>    5.5754    0.0000 </r>
      </set>
      <set comment="kpoint 25">
       <r>  -19.6087    1.0000 </r>
       <r>  -13.4582    1.0000 </r>
       <r>  -10.6763    1.0000 </r>
       <r>   -7.2007    1.0000 </r>
       <r>    0.6298    0.0000 </r>
       <r>    4.4581    0.0000 </r>
       <r>    5.2560    0.0000 </r>
       <r>    5.5754    0.0000 </r>
      </set>
     </set>
    </set>
   </array>
  </eigenvalues>
  <separator name="orbital magnetization" >
   <v name="MAGDIPOLOUT">      0.00000000      0.00000000      0.00000000</v>
  </separator>
  <dos>
   <i name="efermi">     -4.38516380 </i>
   <total>
    <array>
     <dimension dim="1">gridpoints</dimension>
     <dimension dim="2">spin</dimension>
     <field>energy</field>
     <field>total</field>
     <field>integrated</field>
     <set>
      <set comment="spin 1">
       <r>   -24.5104     0.0000     0.0000 </r>
       <r>   -24.3934     0.0000     0.0000 </r>
       <r>   -24.2764     0.0000     0.0000 </r>
       <r>   -24.1594     0.0000     0.0000 </r>
       <r>   -24.0425     0.0000     0.0000 </r>
       <r>   -23.9255     0.0000     0.0000 </r>
       <r>   -23.8085     0.0000     0.0000 </r>
       <r>   -23.6915     0.0000     0.0000 </r>
       <r>   -23.5745     0.0000     0.0000 </r>
       <r>   -23.4575     0.0000     0.0000 </r>
       <r>   -23.3405     0.0000     0.0000 </r>
       <r>   -23.2236     0.0000     0.0000 </r>
       <r>   -23.1066     0.0012     0.0001 </r>
       <r>   -22.9896     0.0498     0.0060 </r>
       <r>   -22.8726     0.2024     0.0296 </r>
       <r>   -22.7556     0.0913     0.0403 </r>
       <r>   -22.6386     0.0080     0.0413 </r>
       <r>   -22.5216     0.2160     0.0665 </r>
       <r>   -22.4047     1.1529     0.2014 </r>
       <r>   -22.2877     0.6791     0.2808 </r>
       <r>   -22.1707     0.0415     0.2857 </r>
       <r>   -22.0537     0.0002     0.2857 </r>
       <r>   -21.9367     0.0000     0.2857 </r>
       <r>   -21.8197     0.0000     0.2857 </r>
       <r>   -21.7027     0.0015     0.2859 </r>
       <r>   -21.5858     0.1290     0.3010 </r>
       <r>   -21.4688     1.0153     0.4198 </r>
       <r>   -21.3518     0.8679     0.5213 </r>
       <r>   -21.2348     0.0802     0.5307 </r>
       <r>   -21.1178     0.1103     0.5436 </r>
       <r>   -21.0008     0.9670     0.6567 </r>
       <r>   -20.8838     0.9207     0.7644 </r>
       <r>   -20.7669     0.0941     0.7754 </r>
       <r>   -20.6499     0.0009     0.7755 </r>
       <r>   -20.5329     0.0000     0.7755 </r>
       <r>   -20.4159     0.0000     0.7755 </r>
       <r>   -20.2989     0.0000     0.7755 </r>
       <r>   -20.1819     0.0000     0.7755 </r>
       <r>   -20.0649     0.0000     0.7755 </r>
       <r>   -19.9480     0.0000     0.7755 </r>
       <r>   -19.8310     0.0035     0.7759 </r>
       <r>   -19.7140     0.2826     0.8090 </r>
       <r>   -19.5970     2.0835     1.0527 </r>
       <r>   -19.4800     1.6735     1.2485 </r>
       <r>   -19.3630     0.1427     1.2652 </r>
       <r>   -19.2460     0.0011     1.2653 </r>
       <r>   -19.1291     0.0000     1.2653 </r>
       <r>   -19.0121     0.0000     1.2653 </r>
       <r>   -18.8951     0.0094     1.2664 </r>
       <r>   -18.7781     0.3454     1.3068 </r>
       <r>   -18.6611     1.2309     1.4508 </r>
       <r>   -18.5441     0.4881     1.5079 </r>
       <r>   -18.4271     0.0194     1.5102 </r>
       <r>   -18.3101     0.0001     1.5102 </r>
       <r>   -18.1932     0.0000     1.5102 </r>
       <r>   -18.0762     0.0000     1.5102 </r>
       <r>   -17.9592     0.0000     1.5102 </r>
       <r>   -17.8422     0.0000     1.5102 </r>
       <r>   -17.7252     0.0000     1.5102 </r>
       <r>   -17.6082     0.0093     1.5113 </r>
       <r>   -17.4912     0.3868     1.5565 </r>
       <r>   -17.3743     1.9614     1.7860 </r>
       <r>   -17.2573     1.6181     1.9753 </r>
       <r>   -17.1403     0.2083     1.9996 </r>
       <r>   -17.0233     0.0030     2.0000 </r>
       <r>   -16.9063     0.0000     2.0000 </r>
       <r>   -16.7893     0.0000     2.0000 </r>
       <r>   -16.6723     0.0000     2.0000 </r>
       <r>   -16.5554     0.0012     2.0001 </r>
       <r>   -16.4384     0.1144     2.0135 </r>
       <r>   -16.3214     0.9797     2.1281 </r>
       <r>   -16.2044     0.9073     2.2343 </r>
       <r>   -16.0874     0.0900     2.2448 </r>
       <r>   -15.9704     0.0008     2.2449 </r>
       <r>   -15.8534     0.0000     2.2449 </r>
       <r>   -15.7365     0.0000     2.2449 </r>
       <r>   -15.6195     0.0017     2.2451 </r>
       <r>   -15.5025     0.1386     2.2613 </r>
       <r>   -15.3855     1.0361     2.3825 </r>
       <r>   -15.2685     0.8435     2.4812 </r>
       <r>   -15.1515     0.0732     2.4898 </r>
       <r>   -15.0345     0.0451     2.4950 </r>
       <r>   -14.9176     0.6986     2.5768 </r>
       <r>   -14.8006     1.1412     2.7103 </r>
       <r>   -14.6836     0.2054     2.7343 </r>
       <r>   -14.5666     0.0035     2.7347 </r>
       <r>   -14.4496     0.0000     2.7347 </r>
       <r>   -14.3326     0.0000     2.7347 </r>
       <r>   -14.2156     0.0000     2.7347 </r>
       <r>   -14.0987     0.0000     2.7347 </r>
       <r>   -13.9817     0.0000     2.7347 </r>
       <r>   -13.8647     0.0000     2.7347 </r>
       <r>   -13.7477     0.0001     2.7347 </r>
       <r>   -13.6307     0.0307     2.7383 </r>
       <r>   -13.5137     0.8743     2.8406 </r>
       <r>   -13.3967     2.5198     3.1354 </r>
       <r>   -13.2798     1.4731     3.3077 </r>
       <r>   -13.1628     1.1696     3.4445 </r>
       <r>   -13.0458     0.2091     3.4690 </r>
       <r>   -12.9288     0.0036     3.4694 </r>
       <r>   -12.8118     0.0000     3.4694 </r>
       <r>   -12.6948     0.0000     3.4694 </r>
       <r>   -12.5778     0.0000     3.4694 </r>
       <r>   -12.4609     0.0000     3.4694 </r>
       <r>   -12.3439     0.0000     3.4694 </r>
       <r>   -12.2269     0.0000     3.4694 </r>
       <r>   -12.1099     0.0000     3.4694 </r>
       <r>   -11.9929     0.0007     3.4695 </r>
       <r>   -11.8759     0.0813     3.4790 </r>
       <r>   -11.7589     0.8761     3.5815 </r>
       <r>   -11.6419     1.0081     3.6994 </r>
       <r>   -11.5250     0.1259     3.7141 </r>
       <r>   -11.4080     0.0042     3.7146 </r>
       <r>   -11.2910     0.1827     3.7360 </r>
       <r>   -11.1740     1.1154     3.8665 </r>
       <r>   -11.0570     0.8259     3.9631 </r>
       <r>   -10.9400     0.2574     3.9932 </r>
       <r>   -10.8230     0.1360     4.0091 </r>
       <r>   -10.7061     1.3320     4.1649 </r>
       <r>   -10.5891     2.3513     4.4400 </r>
       <r>   -10.4721     1.0407     4.5617 </r>
       <r>   -10.3551     1.4078     4.7264 </r>
       <r>   -10.2381     1.4065     4.8910 </r>
       <r>   -10.1211     0.7115     4.9742 </r>
       <r>   -10.0041     0.0457     4.9796 </r>
       <r>    -9.8872     0.0026     4.9799 </r>
       <r>    -9.7702     0.1673     4.9994 </r>
       <r>    -9.6532     1.0888     5.1268 </r>
       <r>    -9.5362     0.7777     5.2178 </r>
       <r>    -9.4192     0.1828     5.2392 </r>
       <r>    -9.3022     1.0057     5.3568 </r>
       <r>    -9.1852     0.9368     5.4664 </r>
       <r>    -9.0683     0.8529     5.5662 </r>
       <r>    -8.9513     1.1108     5.6961 </r>
       <r>    -8.8343     0.8275     5.7929 </r>
       <r>    -8.7173     2.4530     6.0799 </r>
       <r>    -8.6003     1.0184     6.1991 </r>
       <r>    -8.4833     0.0428     6.2041 </r>
       <r>    -8.3663     0.0040     6.2045 </r>
       <r>    -8.2494     0.2165     6.2299 </r>
       <r>    -8.1324     1.1535     6.3648 </r>
       <r>    -8.0154     0.6780     6.4441 </r>
       <r>    -7.8984     0.0414     6.4490 </r>
       <r>    -7.7814     0.0002     6.4490 </r>
       <r>    -7.6644     0.0000     6.4490 </r>
       <r>    -7.5474     0.0002     6.4490 </r>
       <r>    -7.4305     0.0451     6.4543 </r>
       <r>    -7.3135     0.9167     6.5615 </r>
       <r>    -7.1965     3.1098     6.9253 </r>
       <r>    -7.0795     2.0237     7.1621 </r>
       <r>    -6.9625     0.1830     7.1835 </r>
       <r>    -6.8455     0.0016     7.1837 </r>
       <r>    -6.7285     0.0000     7.1837 </r>
       <r>    -6.6116     0.0032     7.1841 </r>
       <r>    -6.4946     0.2250     7.2104 </r>
       <r>    -6.3776     1.4528     7.3803 </r>
       <r>    -6.2606     1.0321     7.5011 </r>
       <r>    -6.1436     0.0775     7.5101 </r>
       <r>    -6.0266     0.0005     7.5102 </r>
       <r>    -5.9096     0.0000     7.5102 </r>
       <r>    -5.7927     0.0000     7.5102 </r>
       <r>    -5.6757     0.0000     7.5102 </r>
       <r>    -5.5587     0.0002     7.5102 </r>
       <r>    -5.4417     0.0425     7.5152 </r>
       <r>    -5.3247     0.6854     7.5954 </r>
       <r>    -5.2077     1.1491     7.7298 </r>
       <r>    -5.0907     0.2155     7.7550 </r>
       <r>    -4.9737     0.1963     7.7780 </r>
       <r>    -4.8568     1.1255     7.9097 </r>
       <r>    -4.7398     0.7233     7.9943 </r>
       <r>    -4.6228     0.0486     8.0000 </r>
       <r>    -4.5058     0.0003     8.0000 </r>
       <r>    -4.3888     0.0000     8.0000 </r>
       <r>    -4.2718     0.0000     8.0000 </r>
       <r>    -4.1548     0.0000     8.0000 </r>
       <r>    -4.0379     0.0000     8.0000 </r>
       <r>    -3.9209     0.0000     8.0000 </r>
       <r>    -3.8039     0.0000     8.0000 </r>
       <r>    -3.6869     0.0000     8.0000 </r>
       <r>    -3.5699     0.0000     8.0000 </r>
       <r>    -3.4529     0.0000     8.0000 </r>
       <r>    -3.3359     0.0000     8.0000 </r>
       <r>    -3.2190     0.0000     8.0000 </r>
       <r>    -3.1020     0.0000     8.0000 </r>
       <r>    -2.9850     0.0000     8.0000 </r>
       <r>    -2.8680     0.0000     8.0000 </r>
       <r>    -2.7510     0.0000     8.0000 </r>
       <r>    -2.6340     0.0000     8.0000 </r>
       <r>    -2.5170     0.0000     8.0000 </r>
       <r>    -2.4001     0.0000     8.0000 </r>
       <r>    -2.2831     0.0000     8.0000 </r>
       <r>    -2.1661     0.0000     8.0000 </r>
       <r>    -2.0491     0.0165     8.0019 </r>
       <r>    -1.9321     0.5995     8.0721 </r>
       <r>    -1.8151     2.3580     8.3479 </r>
       <r>    -1.6981     1.1484     8.4823 </r>
       <r>    -1.5812     0.0640     8.4898 </r>
       <r>    -1.4642     0.0003     8.4898 </r>
       <r>    -1.3472     0.0000     8.4898 </r>
       <r>    -1.2302     0.0000     8.4898 </r>
       <r>    -1.1132     0.0001     8.4898 </r>
       <r>    -0.9962     0.0323     8.4936 </r>
       <r>    -0.8792     0.6113     8.5651 </r>
       <r>    -0.7623     1.1885     8.7041 </r>
       <r>    -0.6453     0.2560     8.7341 </r>
       <r>    -0.5283     0.0052     8.7347 </r>
       <r>    -0.4113     0.0000     8.7347 </r>
       <r>    -0.2943     0.0017     8.7349 </r>
       <r>    -0.1773     0.0598     8.7419 </r>
       <r>    -0.0603     0.2057     8.7660 </r>
       <r>     0.0566     0.0787     8.7752 </r>
       <r>     0.1736     0.0030     8.7755 </r>
       <r>     0.2906     0.0004     8.7756 </r>
       <r>     0.4076     0.0594     8.7825 </r>
       <r>     0.5246     1.0613     8.9067 </r>
       <r>     0.6416     3.3339     9.2967 </r>
       <r>     0.7586     2.0368     9.5350 </r>
       <r>     0.8755     0.3456     9.5754 </r>
       <r>     0.9925     0.1638     9.5946 </r>
       <r>     1.1095     0.2026     9.6183 </r>
       <r>     1.2265     0.3593     9.6603 </r>
       <r>     1.3435     1.1915     9.7997 </r>
       <r>     1.4605     0.9578     9.9117 </r>
       <r>     1.5775     1.2705    10.0604 </r>
       <r>     1.6945     0.9265    10.1687 </r>
       <r>     1.8114     1.7975    10.3790 </r>
       <r>     1.9284     1.6637    10.5736 </r>
       <r>     2.0454     0.3224    10.6114 </r>
       <r>     2.1624     0.0075    10.6122 </r>
       <r>     2.2794     0.0015    10.6124 </r>
       <r>     2.3964     0.1288    10.6275 </r>
       <r>     2.5134     1.0989    10.7560 </r>
       <r>     2.6303     1.7661    10.9626 </r>
       <r>     2.7473     1.3327    11.1185 </r>
       <r>     2.8643     2.0527    11.3587 </r>
       <r>     2.9813     1.8863    11.5794 </r>
       <r>     3.0983     1.1376    11.7124 </r>
       <r>     3.2153     0.9987    11.8293 </r>
       <r>     3.3323     0.7906    11.9218 </r>
       <r>     3.4492     1.2959    12.0734 </r>
       <r>     3.5662     1.2620    12.2210 </r>
       <r>     3.6832     0.8320    12.3184 </r>
       <r>     3.8002     0.0694    12.3265 </r>
       <r>     3.9172     0.0187    12.3287 </r>
       <r>     4.0342     0.4734    12.3840 </r>
       <r>     4.1512     1.2338    12.5284 </r>
       <r>     4.2681     0.3730    12.5720 </r>
       <r>     4.3851     0.6279    12.6455 </r>
       <r>     4.5021     2.4375    12.9306 </r>
       <r>     4.6191     1.0688    13.0556 </r>
       <r>     4.7361     0.0475    13.0612 </r>
       <r>     4.8531     0.0002    13.0612 </r>
       <r>     4.9701     0.0001    13.0612 </r>
       <r>     5.0870     0.0352    13.0654 </r>
       <r>     5.2040     0.9327    13.1745 </r>
       <r>     5.3210     2.4704    13.4635 </r>
       <r>     5.4380     0.8361    13.5613 </r>
       <r>     5.5550     1.5326    13.7406 </r>
       <r>     5.6720     2.3954    14.0208 </r>
       <r>     5.7890     1.4777    14.1937 </r>
       <r>     5.9059     1.0088    14.3117 </r>
       <r>     6.0229     1.2473    14.4576 </r>
       <r>     6.1399     0.5939    14.5271 </r>
       <r>     6.2569     0.0301    14.5306 </r>
       <r>     6.3739     0.0013    14.5308 </r>
       <r>     6.4909     0.1148    14.5442 </r>
       <r>     6.6079     0.9809    14.6589 </r>
       <r>     6.7248     0.9060    14.7649 </r>
       <r>     6.8418     0.0897    14.7754 </r>
       <r>     6.9588     0.0008    14.7755 </r>
       <r>     7.0758     0.0000    14.7755 </r>
       <r>     7.1928     0.0082    14.7765 </r>
       <r>     7.3098     0.3212    14.8140 </r>
       <r>     7.4268     1.2335    14.9583 </r>
       <r>     7.5437     0.8732    15.0605 </r>
       <r>     7.6607     1.2553    15.2073 </r>
       <r>     7.7777     0.4769    15.2631 </r>
       <r>     7.8947     0.0186    15.2653 </r>
       <r>     8.0117     0.0235    15.2681 </r>
       <r>     8.1287     0.5318    15.3303 </r>
       <r>     8.2457     1.2444    15.4759 </r>
       <r>     8.3626     0.8547    15.5758 </r>
       <r>     8.4796     1.2226    15.7189 </r>
       <r>     8.5966     0.3024    15.7542 </r>
       <r>     8.7136     0.0074    15.7551 </r>
       <r>     8.8306     0.0251    15.7581 </r>
       <r>     8.9476     0.5480    15.8222 </r>
       <r>     9.0646     1.2142    15.9642 </r>
       <r>     9.1816     0.2988    15.9992 </r>
       <r>     9.2985     0.0071    16.0000 </r>
       <r>     9.4155     0.0000    16.0000 </r>
       <r>     9.5325     0.0000    16.0000 </r>
       <r>     9.6495     0.0000    16.0000 </r>
       <r>     9.7665     0.0000    16.0000 </r>
       <r>     9.8835     0.0000    16.0000 </r>
       <r>    10.0005     0.0000    16.0000 </r>
       <r>    10.1174     0.0000    16.0000 </r>
       <r>    10.2344     0.0000    16.0000 </r>
       <r>    10.3514     0.0000    16.0000 </r>
       <r>    10.4684     0.0000    16.0000 </r>
       <r>    10.5854     0.0000    16.0000 </r>
      </set>
     </set>
    </array>
   </total>
  </dos>
 </calculation>
 <structure name="finalpos" >
  <crystal>
   <varray name="basis" >
    <v>       2.46380000       0.00000000       0.00000000 </v>
    <v>      -1.23190000       2.13370008       0.00000000 </v>
    <v>       0.00000000       0.00000000      34.49320000 </v>
   </varray>
   <i name="volume">    181.33110586 </i>
   <varray name="rec_basis" >
    <v>       0.40587710       0.23433472       0.00000000 </v>
    <v>       0.00000000       0.46866943       0.00000000 </v>
    <v>       0.00000000       0.00000000       0.02899122 </v>
   </varray>
  </crystal>
  <varray name="positions" >
   <v>       0.00000000       0.00000000       0.00000000 </v>
   <v>       0.33333330       0.66666670       0.00000000 </v>
  </varray>
  <varray name="selective"  type="logical" >
   <v type="logical" >  T  T  F </v>
   <v type="logical" >  T  T  F </v>
  </varray>
  <nose>
   <v>      -3.00000000       0.00000000       0.00010000       0.00010000 </v>
  </nose>
 </structure>
</modeling>
