   2   2   1   0
  0.9066555E+02  0.2463800E-09  0.2463789E-09  0.3449320E-08  0.5000000E-15
  1.000000000000000E-004
  CAR 
 "graphene"                              
     11.66822632    -24.91453351 2000     -3.57611476      1.00000000
    -24.915  0.0000E+00  0.0000E+00
    -24.896  0.0000E+00  0.0000E+00
    -24.878  0.0000E+00  0.0000E+00
    -24.860  0.0000E+00  0.0000E+00
    -24.841  0.0000E+00  0.0000E+00
    -24.823  0.0000E+00  0.0000E+00
    -24.805  0.0000E+00  0.0000E+00
    -24.786  0.0000E+00  0.0000E+00
    -24.768  0.0000E+00  0.0000E+00
    -24.750  0.0000E+00  0.0000E+00
    -24.732  0.0000E+00  0.0000E+00
    -24.713  0.0000E+00  0.0000E+00
    -24.695  0.0000E+00  0.0000E+00
    -24.677  0.0000E+00  0.0000E+00
    -24.658  0.0000E+00  0.0000E+00
    -24.640  0.0000E+00  0.0000E+00
    -24.622  0.0000E+00  0.0000E+00
    -24.603  0.0000E+00  0.0000E+00
    -24.585  0.0000E+00  0.0000E+00
    -24.567  0.0000E+00  0.0000E+00
    -24.549  0.0000E+00  0.0000E+00
    -24.530  0.0000E+00  0.0000E+00
    -24.512  0.0000E+00  0.0000E+00
    -24.494  0.0000E+00  0.0000E+00
    -24.475  0.0000E+00  0.0000E+00
    -24.457  0.0000E+00  0.0000E+00
    -24.439  0.0000E+00  0.0000E+00
    -24.420  0.0000E+00  0.0000E+00
    -24.402  0.0000E+00  0.0000E+00
    -24.384  0.0000E+00  0.0000E+00
    -24.366  0.0000E+00  0.0000E+00
    -24.347  0.0000E+00  0.0000E+00
    -24.329  0.0000E+00  0.0000E+00
    -24.311  0.0000E+00  0.0000E+00
    -24.292  0.0000E+00  0.0000E+00
    -24.274  0.0000E+00  0.0000E+00
    -24.256  0.0000E+00  0.0000E+00
    -24.237  0.0000E+00  0.0000E+00
    -24.219  0.0000E+00  0.0000E+00
    -24.201  0.0000E+00  0.0000E+00
    -24.183  0.0000E+00  0.0000E+00
    -24.164  0.0000E+00  0.0000E+00
    -24.146  0.0000E+00  0.0000E+00
    -24.128  0.0000E+00  0.0000E+00
    -24.109  0.0000E+00  0.0000E+00
    -24.091  0.0000E+00  0.0000E+00
    -24.073  0.0000E+00  0.0000E+00
    -24.054  0.0000E+00  0.0000E+00
    -24.036  0.0000E+00  0.0000E+00
    -24.018  0.0000E+00  0.0000E+00
    -24.000  0.0000E+00  0.0000E+00
    -23.981  0.0000E+00  0.0000E+00
    -23.963  0.0000E+00  0.0000E+00
    -23.945  0.0000E+00  0.0000E+00
    -23.926  0.0000E+00  0.0000E+00
    -23.908  0.0000E+00  0.0000E+00
    -23.890  0.0000E+00  0.0000E+00
    -23.871  0.0000E+00  0.0000E+00
    -23.853  0.0000E+00  0.0000E+00
    -23.835  0.0000E+00  0.0000E+00
    -23.817  0.0000E+00  0.0000E+00
    -23.798  0.0000E+00  0.0000E+00
    -23.780  0.0000E+00  0.0000E+00
    -23.762  0.0000E+00  0.0000E+00
    -23.743  0.0000E+00  0.0000E+00
    -23.725  0.0000E+00  0.0000E+00
    -23.707  0.0000E+00  0.0000E+00
    -23.688  0.0000E+00  0.0000E+00
    -23.670  0.0000E+00  0.0000E+00
    -23.652  0.0000E+00  0.0000E+00
    -23.633  0.0000E+00  0.0000E+00
    -23.615  0.0000E+00  0.0000E+00
    -23.597  0.0000E+00  0.0000E+00
    -23.579  0.0000E+00  0.0000E+00
    -23.560  0.0000E+00  0.0000E+00
    -23.542  0.0000E+00  0.0000E+00
    -23.524  0.0000E+00  0.0000E+00
    -23.505  0.0000E+00  0.0000E+00
    -23.487  0.0000E+00  0.0000E+00
    -23.469  0.0000E+00  0.0000E+00
    -23.450  0.0000E+00  0.0000E+00
    -23.432  0.0000E+00  0.0000E+00
    -23.414  0.0000E+00  0.0000E+00
    -23.396  0.0000E+00  0.0000E+00
    -23.377  0.0000E+00  0.0000E+00
    -23.359  0.0000E+00  0.0000E+00
    -23.341  0.0000E+00  0.0000E+00
    -23.322  0.0000E+00  0.0000E+00
    -23.304  0.0000E+00  0.0000E+00
    -23.286  0.0000E+00  0.0000E+00
    -23.267  0.0000E+00  0.0000E+00
    -23.249  0.0000E+00  0.0000E+00
    -23.231  0.0000E+00  0.0000E+00
    -23.213  0.0000E+00  0.0000E+00
    -23.194  0.0000E+00  0.0000E+00
    -23.176  0.0000E+00  0.0000E+00
    -23.158  0.0000E+00  0.0000E+00
    -23.139  0.0000E+00  0.0000E+00
    -23.121  0.0000E+00  0.0000E+00
    -23.103  0.0000E+00  0.0000E+00
    -23.084  0.0000E+00  0.0000E+00
    -23.066  0.0000E+00  0.0000E+00
    -23.048  0.0000E+00  0.0000E+00
    -23.030  0.0000E+00  0.0000E+00
    -23.011  0.0000E+00  0.0000E+00
    -22.993  0.0000E+00  0.0000E+00
    -22.975  0.0000E+00  0.0000E+00
    -22.956  0.0000E+00  0.0000E+00
    -22.938  0.0000E+00  0.0000E+00
    -22.920  0.0000E+00  0.0000E+00
    -22.901  0.4695E+00  0.3066E-02
    -22.883  0.3052E+00  0.8392E-02
    -22.865  0.3102E+00  0.1430E-01
    -22.847  0.2974E+00  0.1967E-01
    -22.828  0.3166E+00  0.2529E-01
    -22.810  0.3029E+00  0.3108E-01
    -22.792  0.2986E+00  0.3659E-01
    -22.773  0.3053E+00  0.4209E-01
    -22.755  0.3151E+00  0.4777E-01
    -22.737  0.3078E+00  0.5355E-01
    -22.718  0.3017E+00  0.5908E-01
    -22.700  0.3034E+00  0.6461E-01
    -22.682  0.3069E+00  0.7019E-01
    -22.664  0.3128E+00  0.7586E-01
    -22.645  0.3086E+00  0.8162E-01
    -22.627  0.3039E+00  0.8722E-01
    -22.609  0.3031E+00  0.9276E-01
    -22.590  0.3054E+00  0.9833E-01
    -22.572  0.3077E+00  0.1039E+00
    -22.554  0.3109E+00  0.1096E+00
    -22.535  0.3148E+00  0.1153E+00
    -22.517  0.3057E+00  0.1210E+00
    -22.499  0.3050E+00  0.1266E+00
    -22.481  0.3043E+00  0.1322E+00
    -22.462  0.3061E+00  0.1377E+00
    -22.444  0.3082E+00  0.1434E+00
    -22.426  0.3103E+00  0.1490E+00
    -22.407  0.3124E+00  0.1547E+00
    -22.389  0.3089E+00  0.1604E+00
    -22.371  0.3061E+00  0.1661E+00
    -22.352  0.3058E+00  0.1716E+00
    -22.334  0.3063E+00  0.1772E+00
    -22.316  0.3067E+00  0.1829E+00
    -22.298  0.3081E+00  0.1885E+00
    -22.279  0.3098E+00  0.1941E+00
    -22.261  0.3115E+00  0.1998E+00
    -22.243  0.3133E+00  0.2055E+00
    -22.224  0.3078E+00  0.2112E+00
    -22.206  0.3072E+00  0.2168E+00
    -22.188  0.3066E+00  0.2225E+00
    -22.169  0.3071E+00  0.2281E+00
    -22.151  0.3078E+00  0.2337E+00
    -22.133  0.3086E+00  0.2393E+00
    -22.115  0.3093E+00  0.2450E+00
    -22.096  0.3108E+00  0.2507E+00
    -22.078  0.3122E+00  0.2564E+00
    -22.060  0.3137E+00  0.2621E+00
    -22.041  0.3090E+00  0.2678E+00
    -22.023  0.3078E+00  0.2734E+00
    -22.005  0.3079E+00  0.2790E+00
    -21.986  0.3080E+00  0.2847E+00
    -21.968  0.3083E+00  0.2903E+00
    -21.950  0.3091E+00  0.2960E+00
    -21.932  0.3099E+00  0.3016E+00
    -21.913  0.3108E+00  0.3073E+00
    -21.895  0.3116E+00  0.3130E+00
    -21.877  0.3127E+00  0.3187E+00
    -21.858  0.3121E+00  0.3244E+00
    -21.840  0.3098E+00  0.3301E+00
    -21.822  0.3092E+00  0.3358E+00
    -21.803  0.3088E+00  0.3414E+00
    -21.785  0.3090E+00  0.3471E+00
    -21.767  0.3093E+00  0.3528E+00
    -21.749  0.3097E+00  0.3584E+00
    -21.730  0.3103E+00  0.3641E+00
    -21.712  0.3110E+00  0.3698E+00
    -21.694  0.3118E+00  0.3755E+00
    -21.675  0.3126E+00  0.3812E+00
    -21.657  0.3134E+00  0.3869E+00
    -21.639  0.3120E+00  0.3927E+00
    -21.620  0.3107E+00  0.3984E+00
    -21.602  0.3102E+00  0.4040E+00
    -21.584  0.3102E+00  0.4097E+00
    -21.566  0.3101E+00  0.4154E+00
    -21.547  0.3103E+00  0.4211E+00
    -21.529  0.3107E+00  0.4267E+00
    -21.511  0.3111E+00  0.4324E+00
    -21.492  0.3116E+00  0.4381E+00
    -21.474  0.3120E+00  0.4438E+00
    -21.456  0.3128E+00  0.4496E+00
    -21.437  0.3135E+00  0.4553E+00
    -21.419  0.3142E+00  0.4610E+00
    -21.401  0.3137E+00  0.4668E+00
    -21.383  0.3120E+00  0.4725E+00
    -21.364  0.3114E+00  0.4782E+00
    -21.346  0.3112E+00  0.4839E+00
    -21.328  0.3114E+00  0.4896E+00
    -21.309  0.3115E+00  0.4953E+00
    -21.291  0.3117E+00  0.5010E+00
    -21.273  0.3120E+00  0.5067E+00
    -21.254  0.3125E+00  0.5124E+00
    -21.236  0.3129E+00  0.5181E+00
    -21.218  0.3133E+00  0.5239E+00
    -21.200  0.3138E+00  0.5296E+00
    -21.181  0.3144E+00  0.5354E+00
    -21.163  0.3150E+00  0.5411E+00
    -21.145  0.3157E+00  0.5469E+00
    -21.126  0.3135E+00  0.5526E+00
    -21.108  0.3129E+00  0.5584E+00
    -21.090  0.3128E+00  0.5641E+00
    -21.071  0.3127E+00  0.5698E+00
    -21.053  0.3127E+00  0.5755E+00
    -21.035  0.3130E+00  0.5813E+00
    -21.017  0.3133E+00  0.5870E+00
    -20.998  0.3136E+00  0.5927E+00
    -20.980  0.3139E+00  0.5985E+00
    -20.962  0.3143E+00  0.6042E+00
    -20.943  0.3148E+00  0.6100E+00
    -20.925  0.3152E+00  0.6157E+00
    -20.907  0.3157E+00  0.6215E+00
    -20.888  0.3161E+00  0.6273E+00
    -20.870  0.3166E+00  0.6331E+00
    -20.852  0.3149E+00  0.6389E+00
    -20.834  0.3146E+00  0.6446E+00
    -20.815  0.3143E+00  0.6504E+00
    -20.797  0.3144E+00  0.6561E+00
    -20.779  0.3144E+00  0.6619E+00
    -20.760  0.3145E+00  0.6676E+00
    -20.742  0.3146E+00  0.6734E+00
    -20.724  0.3149E+00  0.6792E+00
    -20.705  0.3153E+00  0.6849E+00
    -20.687  0.3156E+00  0.6907E+00
    -20.669  0.3159E+00  0.6965E+00
    -20.651  0.3163E+00  0.7023E+00
    -20.632  0.3167E+00  0.7080E+00
    -20.614  0.3172E+00  0.7138E+00
    -20.596  0.3176E+00  0.7197E+00
    -20.577  0.3180E+00  0.7255E+00
    -20.559  0.3170E+00  0.7313E+00
    -20.541  0.3163E+00  0.7371E+00
    -20.522  0.3162E+00  0.7429E+00
    -20.504  0.3162E+00  0.7487E+00
    -20.486  0.3162E+00  0.7544E+00
    -20.468  0.3164E+00  0.7602E+00
    -20.449  0.3165E+00  0.7660E+00
    -20.431  0.3167E+00  0.7718E+00
    -20.413  0.3169E+00  0.7776E+00
    -20.394  0.3172E+00  0.7834E+00
    -20.376  0.3175E+00  0.7892E+00
    -20.358  0.3178E+00  0.7950E+00
    -20.339  0.3182E+00  0.8009E+00
    -20.321  0.3186E+00  0.8067E+00
    -20.303  0.3189E+00  0.8125E+00
    -20.284  0.3193E+00  0.8184E+00
    -20.266  0.3198E+00  0.8242E+00
    -20.248  0.3193E+00  0.8301E+00
    -20.230  0.3186E+00  0.8359E+00
    -20.211  0.3184E+00  0.8417E+00
    -20.193  0.3183E+00  0.8475E+00
    -20.175  0.3184E+00  0.8534E+00
    -20.156  0.3185E+00  0.8592E+00
    -20.138  0.3186E+00  0.8650E+00
    -20.120  0.3188E+00  0.8709E+00
    -20.101  0.3191E+00  0.8767E+00
    -20.083  0.3193E+00  0.8825E+00
    -20.065  0.3196E+00  0.8884E+00
    -20.047  0.3198E+00  0.8942E+00
    -20.028  0.3201E+00  0.9001E+00
    -20.010  0.3205E+00  0.9060E+00
    -19.992  0.3208E+00  0.9118E+00
    -19.973  0.3212E+00  0.9177E+00
    -19.955  0.3216E+00  0.9236E+00
    -19.937  0.3219E+00  0.9295E+00
    -19.918  0.3217E+00  0.9354E+00
    -19.900  0.3212E+00  0.9412E+00
    -19.882  0.3210E+00  0.9471E+00
    -19.864  0.3210E+00  0.9530E+00
    -19.845  0.3210E+00  0.9589E+00
    -19.827  0.3211E+00  0.9647E+00
    -19.809  0.3213E+00  0.9706E+00
    -19.790  0.3215E+00  0.9765E+00
    -19.772  0.3217E+00  0.9824E+00
    -19.754  0.3219E+00  0.9883E+00
    -19.735  0.3222E+00  0.9942E+00
    -19.717  0.3225E+00  0.1000E+01
    -19.699  0.3228E+00  0.1006E+01
    -19.681  0.3231E+00  0.1012E+01
    -19.662  0.3234E+00  0.1018E+01
    -19.644  0.3237E+00  0.1024E+01
    -19.626  0.3241E+00  0.1030E+01
    -19.607  0.3244E+00  0.1036E+01
    -19.589  0.3248E+00  0.1042E+01
    -19.571  0.3252E+00  0.1047E+01
    -19.552  0.3244E+00  0.1053E+01
    -19.534  0.3243E+00  0.1059E+01
    -19.516  0.3242E+00  0.1065E+01
    -19.498  0.3244E+00  0.1071E+01
    -19.479  0.3246E+00  0.1077E+01
    -19.461  0.3247E+00  0.1083E+01
    -19.443  0.3249E+00  0.1089E+01
    -19.424  0.3252E+00  0.1095E+01
    -19.406  0.3254E+00  0.1101E+01
    -19.388  0.3257E+00  0.1107E+01
    -19.369  0.3259E+00  0.1113E+01
    -19.351  0.3262E+00  0.1119E+01
    -19.333  0.3266E+00  0.1125E+01
    -19.315  0.3269E+00  0.1131E+01
    -19.296  0.3273E+00  0.1137E+01
    -19.278  0.3277E+00  0.1143E+01
    -19.260  0.3280E+00  0.1149E+01
    -19.241  0.3284E+00  0.1155E+01
    -19.223  0.3288E+00  0.1161E+01
    -19.205  0.3292E+00  0.1167E+01
    -19.186  0.3287E+00  0.1173E+01
    -19.168  0.3286E+00  0.1179E+01
    -19.150  0.3287E+00  0.1185E+01
    -19.132  0.3289E+00  0.1191E+01
    -19.113  0.3291E+00  0.1197E+01
    -19.095  0.3293E+00  0.1203E+01
    -19.077  0.3296E+00  0.1209E+01
    -19.058  0.3299E+00  0.1215E+01
    -19.040  0.3302E+00  0.1221E+01
    -19.022  0.3306E+00  0.1227E+01
    -19.003  0.3309E+00  0.1233E+01
    -18.985  0.3313E+00  0.1239E+01
    -18.967  0.3316E+00  0.1245E+01
    -18.949  0.3320E+00  0.1251E+01
    -18.930  0.3324E+00  0.1257E+01
    -18.912  0.3329E+00  0.1263E+01
    -18.894  0.3333E+00  0.1270E+01
    -18.875  0.3338E+00  0.1276E+01
    -18.857  0.3342E+00  0.1282E+01
    -18.839  0.3347E+00  0.1288E+01
    -18.820  0.3351E+00  0.1294E+01
    -18.802  0.3349E+00  0.1300E+01
    -18.784  0.3351E+00  0.1306E+01
    -18.766  0.3353E+00  0.1312E+01
    -18.747  0.3357E+00  0.1319E+01
    -18.729  0.3360E+00  0.1325E+01
    -18.711  0.3364E+00  0.1331E+01
    -18.692  0.3369E+00  0.1337E+01
    -18.674  0.3373E+00  0.1343E+01
    -18.656  0.3378E+00  0.1349E+01
    -18.637  0.3383E+00  0.1356E+01
    -18.619  0.3388E+00  0.1362E+01
    -18.601  0.3394E+00  0.1368E+01
    -18.583  0.3400E+00  0.1374E+01
    -18.564  0.3405E+00  0.1380E+01
    -18.546  0.3411E+00  0.1387E+01
    -18.528  0.3417E+00  0.1393E+01
    -18.509  0.3423E+00  0.1399E+01
    -18.491  0.3429E+00  0.1405E+01
    -18.473  0.3437E+00  0.1412E+01
    -18.454  0.3444E+00  0.1418E+01
    -18.436  0.3452E+00  0.1424E+01
    -18.418  0.3457E+00  0.1431E+01
    -18.400  0.3462E+00  0.1437E+01
    -18.381  0.3468E+00  0.1443E+01
    -18.363  0.3475E+00  0.1450E+01
    -18.345  0.3483E+00  0.1456E+01
    -18.326  0.3491E+00  0.1462E+01
    -18.308  0.3499E+00  0.1469E+01
    -18.290  0.3508E+00  0.1475E+01
    -18.271  0.3518E+00  0.1482E+01
    -18.253  0.3529E+00  0.1488E+01
    -18.235  0.3540E+00  0.1495E+01
    -18.217  0.3552E+00  0.1501E+01
    -18.198  0.3565E+00  0.1508E+01
    -18.180  0.3578E+00  0.1514E+01
    -18.162  0.3592E+00  0.1521E+01
    -18.143  0.3607E+00  0.1527E+01
    -18.125  0.3622E+00  0.1534E+01
    -18.107  0.3636E+00  0.1541E+01
    -18.088  0.3651E+00  0.1547E+01
    -18.070  0.3667E+00  0.1554E+01
    -18.052  0.3687E+00  0.1561E+01
    -18.034  0.3711E+00  0.1567E+01
    -18.015  0.3739E+00  0.1574E+01
    -17.997  0.3766E+00  0.1581E+01
    -17.979  0.3794E+00  0.1588E+01
    -17.960  0.3822E+00  0.1595E+01
    -17.942  0.3851E+00  0.1602E+01
    -17.924  0.3883E+00  0.1609E+01
    -17.905  0.3921E+00  0.1616E+01
    -17.887  0.3960E+00  0.1623E+01
    -17.869  0.4003E+00  0.1631E+01
    -17.851  0.4086E+00  0.1638E+01
    -17.832  0.4170E+00  0.1646E+01
    -17.814  0.4257E+00  0.1653E+01
    -17.796  0.4347E+00  0.1661E+01
    -17.777  0.4485E+00  0.1669E+01
    -17.759  0.4623E+00  0.1678E+01
    -17.741  0.4762E+00  0.1686E+01
    -17.722  0.5848E+00  0.1695E+01
    -17.704  0.5548E+00  0.1706E+01
    -17.686  0.7703E+00  0.1716E+01
    -17.668  0.5756E+00  0.1728E+01
    -17.649  0.4110E+00  0.1737E+01
    -17.631  0.4004E+00  0.1745E+01
    -17.613  0.3899E+00  0.1752E+01
    -17.594  0.3796E+00  0.1759E+01
    -17.576  0.3544E+00  0.1769E+01
    -17.558  0.3431E+00  0.1776E+01
    -17.539  0.3317E+00  0.1782E+01
    -17.521  0.3208E+00  0.1788E+01
    -17.503  0.3099E+00  0.1794E+01
    -17.485  0.2991E+00  0.1799E+01
    -17.466  0.2897E+00  0.1805E+01
    -17.448  0.2804E+00  0.1810E+01
    -17.430  0.2933E+00  0.1815E+01
    -17.411  0.3709E+00  0.1821E+01
    -17.393  0.2814E+00  0.1828E+01
    -17.375  0.2732E+00  0.1833E+01
    -17.356  0.2650E+00  0.1838E+01
    -17.338  0.2568E+00  0.1843E+01
    -17.320  0.2486E+00  0.1847E+01
    -17.302  0.2405E+00  0.1852E+01
    -17.283  0.2323E+00  0.1856E+01
    -17.265  0.2241E+00  0.1860E+01
    -17.247  0.2159E+00  0.1864E+01
    -17.228  0.2077E+00  0.1868E+01
    -17.210  0.2074E+00  0.1872E+01
    -17.192  0.2171E+00  0.1876E+01
    -17.173  0.2283E+00  0.1880E+01
    -17.155  0.2411E+00  0.1884E+01
    -17.137  0.2141E+00  0.1888E+01
    -17.119  0.2081E+00  0.1892E+01
    -17.100  0.2020E+00  0.1896E+01
    -17.082  0.1960E+00  0.1900E+01
    -17.064  0.1899E+00  0.1903E+01
    -17.045  0.1839E+00  0.1907E+01
    -17.027  0.1778E+00  0.1910E+01
    -17.009  0.1718E+00  0.1913E+01
    -16.990  0.1657E+00  0.1916E+01
    -16.972  0.1597E+00  0.1919E+01
    -16.954  0.1536E+00  0.1922E+01
    -16.936  0.1476E+00  0.1925E+01
    -16.917  0.1469E+00  0.1927E+01
    -16.899  0.1490E+00  0.1930E+01
    -16.881  0.1511E+00  0.1933E+01
    -16.862  0.1532E+00  0.1936E+01
    -16.844  0.1553E+00  0.1938E+01
    -16.826  0.1574E+00  0.1941E+01
    -16.807  0.1260E+00  0.1944E+01
    -16.789  0.1326E+00  0.1946E+01
    -16.771  0.1378E+00  0.1949E+01
    -16.752  0.1333E+00  0.1951E+01
    -16.734  0.1287E+00  0.1954E+01
    -16.716  0.1242E+00  0.1956E+01
    -16.698  0.1196E+00  0.1958E+01
    -16.679  0.1151E+00  0.1960E+01
    -16.661  0.1105E+00  0.1962E+01
    -16.643  0.1060E+00  0.1964E+01
    -16.624  0.1014E+00  0.1966E+01
    -16.606  0.1329E+00  0.1968E+01
    -16.588  0.2098E+00  0.1971E+01
    -16.569  0.2867E+00  0.1976E+01
    -16.551  0.2366E+00  0.1981E+01
    -16.533  0.4226E+00  0.1987E+01
    -16.515  0.2871E+00  0.1995E+01
    -16.496  0.2965E+00  0.2001E+01
    -16.478  0.3058E+00  0.2006E+01
    -16.460  0.3152E+00  0.2012E+01
    -16.441  0.3246E+00  0.2018E+01
    -16.423  0.3078E+00  0.2024E+01
    -16.405  0.3882E+00  0.2033E+01
    -16.386  0.3136E+00  0.2038E+01
    -16.368  0.3112E+00  0.2044E+01
    -16.350  0.3115E+00  0.2050E+01
    -16.332  0.3119E+00  0.2056E+01
    -16.313  0.3123E+00  0.2061E+01
    -16.295  0.3155E+00  0.2067E+01
    -16.277  0.3208E+00  0.2073E+01
    -16.258  0.3261E+00  0.2079E+01
    -16.240  0.4486E+00  0.2085E+01
    -16.222  0.3796E+00  0.2093E+01
    -16.203  0.3162E+00  0.2099E+01
    -16.185  0.3122E+00  0.2105E+01
    -16.167  0.3091E+00  0.2111E+01
    -16.149  0.3118E+00  0.2116E+01
    -16.130  0.2877E+00  0.2123E+01
    -16.112  0.2941E+00  0.2128E+01
    -16.094  0.3006E+00  0.2134E+01
    -16.075  0.3072E+00  0.2139E+01
    -16.057  0.3137E+00  0.2145E+01
    -16.039  0.3202E+00  0.2151E+01
    -16.020  0.4079E+00  0.2157E+01
    -16.002  0.3714E+00  0.2164E+01
    -15.984  0.3348E+00  0.2171E+01
    -15.966  0.3134E+00  0.2177E+01
    -15.947  0.3200E+00  0.2182E+01
    -15.929  0.3266E+00  0.2188E+01
    -15.911  0.3332E+00  0.2194E+01
    -15.892  0.3398E+00  0.2201E+01
    -15.874  0.3466E+00  0.2207E+01
    -15.856  0.3536E+00  0.2213E+01
    -15.837  0.3991E+00  0.2221E+01
    -15.819  0.4176E+00  0.2229E+01
    -15.801  0.4362E+00  0.2236E+01
    -15.783  0.5674E+00  0.2247E+01
    -15.764  0.4800E+00  0.2256E+01
    -15.746  0.5102E+00  0.2265E+01
    -15.728  0.5487E+00  0.2275E+01
    -15.709  0.5872E+00  0.2285E+01
    -15.691  0.6258E+00  0.2296E+01
    -15.673  0.4812E+00  0.2306E+01
    -15.654  0.4630E+00  0.2314E+01
    -15.636  0.4457E+00  0.2323E+01
    -15.618  0.4376E+00  0.2331E+01
    -15.600  0.4297E+00  0.2339E+01
    -15.581  0.4218E+00  0.2346E+01
    -15.563  0.4139E+00  0.2354E+01
    -15.545  0.4094E+00  0.2362E+01
    -15.526  0.4051E+00  0.2369E+01
    -15.508  0.4008E+00  0.2376E+01
    -15.490  0.3968E+00  0.2384E+01
    -15.471  0.3927E+00  0.2391E+01
    -15.453  0.3887E+00  0.2398E+01
    -15.435  0.3848E+00  0.2405E+01
    -15.417  0.3813E+00  0.2412E+01
    -15.398  0.3777E+00  0.2419E+01
    -15.380  0.3685E+00  0.2426E+01
    -15.362  0.3667E+00  0.2433E+01
    -15.343  0.3649E+00  0.2439E+01
    -15.325  0.3632E+00  0.2446E+01
    -15.307  0.3615E+00  0.2453E+01
    -15.288  0.3599E+00  0.2459E+01
    -15.270  0.3583E+00  0.2466E+01
    -15.252  0.3567E+00  0.2472E+01
    -15.234  0.3551E+00  0.2479E+01
    -15.215  0.3535E+00  0.2485E+01
    -15.197  0.3520E+00  0.2492E+01
    -15.179  0.3504E+00  0.2498E+01
    -15.160  0.3476E+00  0.2505E+01
    -15.142  0.3448E+00  0.2511E+01
    -15.124  0.3421E+00  0.2517E+01
    -15.105  0.3393E+00  0.2523E+01
    -15.087  0.3366E+00  0.2530E+01
    -15.069  0.3338E+00  0.2536E+01
    -15.051  0.3327E+00  0.2542E+01
    -15.032  0.3318E+00  0.2548E+01
    -15.014  0.3310E+00  0.2554E+01
    -14.996  0.3301E+00  0.2560E+01
    -14.977  0.3288E+00  0.2566E+01
    -14.959  0.3276E+00  0.2572E+01
    -14.941  0.3263E+00  0.2578E+01
    -14.922  0.3250E+00  0.2584E+01
    -14.904  0.3238E+00  0.2590E+01
    -14.886  0.3225E+00  0.2596E+01
    -14.868  0.3213E+00  0.2602E+01
    -14.849  0.3200E+00  0.2608E+01
    -14.831  0.3188E+00  0.2614E+01
    -14.813  0.3174E+00  0.2619E+01
    -14.794  0.3159E+00  0.2625E+01
    -14.776  0.3093E+00  0.2631E+01
    -14.758  0.3086E+00  0.2637E+01
    -14.739  0.3078E+00  0.2642E+01
    -14.721  0.3071E+00  0.2648E+01
    -14.703  0.3064E+00  0.2653E+01
    -14.685  0.3057E+00  0.2659E+01
    -14.666  0.3050E+00  0.2665E+01
    -14.648  0.3043E+00  0.2670E+01
    -14.630  0.3035E+00  0.2676E+01
    -14.611  0.3027E+00  0.2681E+01
    -14.593  0.3019E+00  0.2687E+01
    -14.575  0.3011E+00  0.2692E+01
    -14.556  0.3003E+00  0.2698E+01
    -14.538  0.2990E+00  0.2703E+01
    -14.520  0.2971E+00  0.2709E+01
    -14.502  0.2952E+00  0.2714E+01
    -14.483  0.2933E+00  0.2720E+01
    -14.465  0.2913E+00  0.2725E+01
    -14.447  0.2894E+00  0.2730E+01
    -14.428  0.2875E+00  0.2736E+01
    -14.410  0.2870E+00  0.2741E+01
    -14.392  0.2865E+00  0.2746E+01
    -14.373  0.2860E+00  0.2751E+01
    -14.355  0.2855E+00  0.2756E+01
    -14.337  0.2850E+00  0.2762E+01
    -14.319  0.2843E+00  0.2767E+01
    -14.300  0.2834E+00  0.2772E+01
    -14.282  0.2825E+00  0.2777E+01
    -14.264  0.2816E+00  0.2782E+01
    -14.245  0.2807E+00  0.2788E+01
    -14.227  0.2798E+00  0.2793E+01
    -14.209  0.2788E+00  0.2798E+01
    -14.190  0.2779E+00  0.2803E+01
    -14.172  0.2770E+00  0.2808E+01
    -14.154  0.2761E+00  0.2813E+01
    -14.136  0.2751E+00  0.2818E+01
    -14.117  0.2742E+00  0.2823E+01
    -14.099  0.2692E+00  0.2828E+01
    -14.081  0.2686E+00  0.2833E+01
    -14.062  0.2681E+00  0.2838E+01
    -14.044  0.2675E+00  0.2843E+01
    -14.026  0.2670E+00  0.2848E+01
    -14.007  0.2664E+00  0.2853E+01
    -13.989  0.2659E+00  0.2857E+01
    -13.971  0.2653E+00  0.2862E+01
    -13.953  0.2648E+00  0.2867E+01
    -13.934  0.2642E+00  0.2872E+01
    -13.916  0.2637E+00  0.2877E+01
    -13.898  0.3561E+00  0.2884E+01
    -13.879  0.3540E+00  0.2890E+01
    -13.861  0.3519E+00  0.2897E+01
    -13.843  0.3497E+00  0.2903E+01
    -13.824  0.3492E+00  0.2910E+01
    -13.806  0.3525E+00  0.2916E+01
    -13.788  0.3559E+00  0.2922E+01
    -13.770  0.3592E+00  0.2929E+01
    -13.751  0.3625E+00  0.2936E+01
    -13.733  0.3658E+00  0.2942E+01
    -13.715  0.3700E+00  0.2949E+01
    -13.696  0.3569E+00  0.2956E+01
    -13.678  0.3563E+00  0.2962E+01
    -13.660  0.3557E+00  0.2969E+01
    -13.641  0.3550E+00  0.2975E+01
    -13.623  0.3544E+00  0.2982E+01
    -13.605  0.3566E+00  0.2988E+01
    -13.587  0.3580E+00  0.2995E+01
    -13.568  0.3591E+00  0.3001E+01
    -13.550  0.3602E+00  0.3008E+01
    -13.532  0.3613E+00  0.3014E+01
    -13.513  0.3623E+00  0.3021E+01
    -13.495  0.3634E+00  0.3028E+01
    -13.477  0.3645E+00  0.3034E+01
    -13.458  0.3656E+00  0.3041E+01
    -13.440  0.3666E+00  0.3048E+01
    -13.422  0.3677E+00  0.3054E+01
    -13.404  0.3671E+00  0.3061E+01
    -13.385  0.3650E+00  0.3068E+01
    -13.367  0.3613E+00  0.3074E+01
    -13.349  0.3621E+00  0.3081E+01
    -13.330  0.3628E+00  0.3088E+01
    -13.312  0.3635E+00  0.3094E+01
    -13.294  0.3641E+00  0.3101E+01
    -13.275  0.3648E+00  0.3108E+01
    -13.257  0.3652E+00  0.3114E+01
    -13.239  0.3657E+00  0.3121E+01
    -13.220  0.3661E+00  0.3128E+01
    -13.202  0.3666E+00  0.3134E+01
    -13.184  0.3670E+00  0.3141E+01
    -13.166  0.3674E+00  0.3148E+01
    -13.147  0.3679E+00  0.3155E+01
    -13.129  0.3683E+00  0.3161E+01
    -13.111  0.3687E+00  0.3168E+01
    -13.092  0.3728E+00  0.3175E+01
    -13.074  0.3738E+00  0.3182E+01
    -13.056  0.3740E+00  0.3188E+01
    -13.037  0.3742E+00  0.3195E+01
    -13.019  0.3744E+00  0.3202E+01
    -13.001  0.3729E+00  0.3209E+01
    -12.983  0.3720E+00  0.3216E+01
    -12.964  0.3713E+00  0.3223E+01
    -12.946  0.3717E+00  0.3229E+01
    -12.928  0.3722E+00  0.3236E+01
    -12.909  0.3726E+00  0.3243E+01
    -12.891  0.3730E+00  0.3250E+01
    -12.873  0.3735E+00  0.3257E+01
    -12.854  0.3739E+00  0.3264E+01
    -12.836  0.3742E+00  0.3270E+01
    -12.818  0.3750E+00  0.3277E+01
    -12.800  0.3762E+00  0.3284E+01
    -12.781  0.3774E+00  0.3291E+01
    -12.763  0.3783E+00  0.3298E+01
    -12.745  0.3792E+00  0.3305E+01
    -12.726  0.3802E+00  0.3312E+01
    -12.708  0.3811E+00  0.3319E+01
    -12.690  0.3816E+00  0.3326E+01
    -12.671  0.3819E+00  0.3333E+01
    -12.653  0.3822E+00  0.3340E+01
    -12.635  0.3826E+00  0.3347E+01
    -12.617  0.3829E+00  0.3354E+01
    -12.598  0.3832E+00  0.3361E+01
    -12.580  0.3809E+00  0.3368E+01
    -12.562  0.3812E+00  0.3375E+01
    -12.543  0.3818E+00  0.3382E+01
    -12.525  0.3823E+00  0.3389E+01
    -12.507  0.3828E+00  0.3396E+01
    -12.488  0.3832E+00  0.3403E+01
    -12.470  0.3866E+00  0.3410E+01
    -12.452  0.3873E+00  0.3417E+01
    -12.434  0.3881E+00  0.3424E+01
    -12.415  0.3888E+00  0.3431E+01
    -12.397  0.3895E+00  0.3438E+01
    -12.379  0.3901E+00  0.3445E+01
    -12.360  0.3908E+00  0.3452E+01
    -12.342  0.3914E+00  0.3460E+01
    -12.324  0.3920E+00  0.3467E+01
    -12.305  0.3926E+00  0.3474E+01
    -12.287  0.3932E+00  0.3481E+01
    -12.269  0.3938E+00  0.3488E+01
    -12.251  0.3944E+00  0.3496E+01
    -12.232  0.3942E+00  0.3503E+01
    -12.214  0.3938E+00  0.3510E+01
    -12.196  0.3935E+00  0.3517E+01
    -12.177  0.3931E+00  0.3524E+01
    -12.159  0.3929E+00  0.3532E+01
    -12.141  0.3938E+00  0.3539E+01
    -12.122  0.3956E+00  0.3546E+01
    -12.104  0.3974E+00  0.3553E+01
    -12.086  0.3990E+00  0.3560E+01
    -12.068  0.4004E+00  0.3568E+01
    -12.049  0.4019E+00  0.3575E+01
    -12.031  0.4028E+00  0.3583E+01
    -12.013  0.4036E+00  0.3590E+01
    -11.994  0.4043E+00  0.3597E+01
    -11.976  0.4051E+00  0.3605E+01
    -11.958  0.4058E+00  0.3612E+01
    -11.939  0.4065E+00  0.3620E+01
    -11.921  0.4072E+00  0.3627E+01
    -11.903  0.4076E+00  0.3634E+01
    -11.885  0.4079E+00  0.3642E+01
    -11.866  0.4083E+00  0.3649E+01
    -11.848  0.4086E+00  0.3657E+01
    -11.830  0.4089E+00  0.3664E+01
    -11.811  0.4092E+00  0.3672E+01
    -11.793  0.4096E+00  0.3679E+01
    -11.775  0.4126E+00  0.3687E+01
    -11.756  0.4132E+00  0.3694E+01
    -11.738  0.4116E+00  0.3702E+01
    -11.720  0.4125E+00  0.3709E+01
    -11.702  0.4134E+00  0.3717E+01
    -11.683  0.4144E+00  0.3725E+01
    -11.665  0.4172E+00  0.3732E+01
    -11.647  0.4188E+00  0.3740E+01
    -11.628  0.4204E+00  0.3748E+01
    -11.610  0.4218E+00  0.3755E+01
    -11.592  0.4229E+00  0.3763E+01
    -11.573  0.4239E+00  0.3771E+01
    -11.555  0.4248E+00  0.3778E+01
    -11.537  0.4257E+00  0.3786E+01
    -11.519  0.4264E+00  0.3794E+01
    -11.500  0.4271E+00  0.3802E+01
    -11.482  0.4278E+00  0.3810E+01
    -11.464  0.4286E+00  0.3818E+01
    -11.445  0.4293E+00  0.3825E+01
    -11.427  0.4307E+00  0.3833E+01
    -11.409  0.4321E+00  0.3841E+01
    -11.390  0.4335E+00  0.3849E+01
    -11.372  0.4346E+00  0.3857E+01
    -11.354  0.4354E+00  0.3865E+01
    -11.336  0.4361E+00  0.3873E+01
    -11.317  0.4363E+00  0.3881E+01
    -11.299  0.4365E+00  0.3889E+01
    -11.281  0.4369E+00  0.3897E+01
    -11.262  0.4377E+00  0.3905E+01
    -11.244  0.4407E+00  0.3913E+01
    -11.226  0.4434E+00  0.3921E+01
    -11.207  0.4455E+00  0.3929E+01
    -11.189  0.4472E+00  0.3937E+01
    -11.171  0.4489E+00  0.3946E+01
    -11.153  0.4505E+00  0.3954E+01
    -11.134  0.4518E+00  0.3962E+01
    -11.116  0.4532E+00  0.3970E+01
    -11.098  0.4546E+00  0.3979E+01
    -11.079  0.4558E+00  0.3987E+01
    -11.061  0.4569E+00  0.3995E+01
    -11.043  0.4602E+00  0.4004E+01
    -11.024  0.4615E+00  0.4012E+01
    -11.006  0.5044E+00  0.4021E+01
    -10.988  0.6834E+00  0.4033E+01
    -10.970  0.7233E+00  0.4046E+01
    -10.951  0.7335E+00  0.4060E+01
    -10.933  0.7119E+00  0.4073E+01
    -10.915  0.7264E+00  0.4086E+01
    -10.896  0.7409E+00  0.4099E+01
    -10.878  0.7231E+00  0.4113E+01
    -10.860  0.7191E+00  0.4126E+01
    -10.841  0.7300E+00  0.4139E+01
    -10.823  0.7403E+00  0.4153E+01
    -10.805  0.7484E+00  0.4166E+01
    -10.787  0.7364E+00  0.4180E+01
    -10.768  0.7399E+00  0.4193E+01
    -10.750  0.7435E+00  0.4207E+01
    -10.732  0.7481E+00  0.4220E+01
    -10.713  0.7543E+00  0.4234E+01
    -10.695  0.7603E+00  0.4248E+01
    -10.677  0.7542E+00  0.4262E+01
    -10.658  0.7535E+00  0.4276E+01
    -10.640  0.7569E+00  0.4290E+01
    -10.622  0.7610E+00  0.4303E+01
    -10.604  0.7649E+00  0.4317E+01
    -10.585  0.7684E+00  0.4331E+01
    -10.567  0.7727E+00  0.4346E+01
    -10.549  0.7729E+00  0.4360E+01
    -10.530  0.7698E+00  0.4374E+01
    -10.512  0.7709E+00  0.4388E+01
    -10.494  0.7773E+00  0.4402E+01
    -10.475  0.7853E+00  0.4416E+01
    -10.457  0.7917E+00  0.4431E+01
    -10.439  0.7968E+00  0.4445E+01
    -10.421  0.8019E+00  0.4460E+01
    -10.402  0.8067E+00  0.4475E+01
    -10.384  0.8068E+00  0.4489E+01
    -10.366  0.8081E+00  0.4504E+01
    -10.347  0.8103E+00  0.4519E+01
    -10.329  0.8138E+00  0.4534E+01
    -10.311  0.8171E+00  0.4549E+01
    -10.292  0.8204E+00  0.4564E+01
    -10.274  0.8266E+00  0.4579E+01
    -10.256  0.8312E+00  0.4594E+01
    -10.238  0.8358E+00  0.4609E+01
    -10.219  0.8403E+00  0.4625E+01
    -10.201  0.8456E+00  0.4640E+01
    -10.183  0.8622E+00  0.4656E+01
    -10.164  0.8720E+00  0.4672E+01
    -10.146  0.8817E+00  0.4688E+01
    -10.128  0.8890E+00  0.4704E+01
    -10.109  0.8964E+00  0.4720E+01
    -10.091  0.9059E+00  0.4737E+01
    -10.073  0.9151E+00  0.4753E+01
    -10.055  0.9232E+00  0.4770E+01
    -10.036  0.9316E+00  0.4787E+01
    -10.018  0.9445E+00  0.4804E+01
    -10.000  0.9716E+00  0.4822E+01
     -9.981  0.1005E+01  0.4840E+01
     -9.963  0.1078E+01  0.4859E+01
     -9.945  0.1162E+01  0.4879E+01
     -9.926  0.1183E+01  0.4901E+01
     -9.908  0.1202E+01  0.4923E+01
     -9.890  0.1209E+01  0.4945E+01
     -9.871  0.1165E+01  0.4967E+01
     -9.853  0.1121E+01  0.4988E+01
     -9.835  0.1127E+01  0.5008E+01
     -9.817  0.1279E+01  0.5030E+01