    2    2    1    1
  0.9066555E+02  0.2463800E-09  0.2463788E-09  0.3449320E-08  0.5000000E-15
  1.000000000000000E-004
  CAR 
 "graphene"                              
    8  841    8
 
  0.0000000E+00  0.0000000E+00  0.0000000E+00  0.5948840E-03
   1      -22.914534
   2      -11.007794
   3       -6.401090
   4       -6.401061
   5       -0.111332
   6        0.646048
   7        0.860911
   8        1.087861
 
  0.2439024E-01  0.1734723E-17  0.0000000E+00  0.1189768E-02
   1      -22.900444
   2      -10.990914
   3       -6.459654
   4       -6.431979
   5       -0.092222
   6        0.665468
   7        0.880557
   8        1.107439
 
  0.4878049E-01  0.3469447E-17  0.0000000E+00  0.1189768E-02
   1      -22.858189
   2      -10.940623
   3       -6.632516
   4       -6.522907
   5       -0.034897
   6        0.723673
   7        0.939495
   8        1.166187
 
  0.7317073E-01  0.0000000E+00  0.0000000E+00  0.1189768E-02
   1      -22.787802
   2      -10.856666
   3       -6.910351
   4       -6.667089
   5        0.060667
   6        0.820698
   7        1.037725
   8        1.264106
 
  0.9756098E-01  0.6938894E-17  0.0000000E+00  0.1189768E-02
   1      -22.689347
   2      -10.739128
   3       -7.280142
   4       -6.855203
   5        0.194470
   6        0.956519
   7        1.175247
   8        1.401187
 
  0.1219512E+00  0.6938894E-17  0.0000000E+00  0.1189768E-02
   1      -22.562917
   2      -10.588661
   3       -7.726731
   4       -7.076815
   5        0.366509
   6        1.131022
   7        1.352062
   8        1.577409
 
  0.1463415E+00  0.0000000E+00  0.0000000E+00  0.1189768E-02
   1      -22.408647
   2      -10.405479
   3       -8.236279
   4       -7.321284
   5        0.576721
   6        1.344132
   7        1.568169
   8        1.792753
 
  0.1707317E+00  0.1387779E-16  0.0000000E+00  0.1189768E-02
   1      -22.226674
   2      -10.190141
   3       -8.793671
   4       -7.579382
   5        0.825078
   6        1.595668
   7        1.823567
   8        2.047169
 
  0.1951220E+00  0.1387779E-16  0.0000000E+00  0.1189768E-02
   1      -22.017205
   2       -9.943244
   3       -9.387357
   4       -7.842920
   5        1.111470
   6        1.885319
   7        2.118256
   8        2.340605
 
  0.2195122E+00  0.1387779E-16  0.0000000E+00  0.1189768E-02
   1      -21.780454
   2      -10.006657
   3       -9.665406
   4       -8.104141
   5        1.435803
   6        2.212342
   7        2.452231
   8        2.672810
 
  0.2439024E+00  0.1387779E-16  0.0000000E+00  0.1189768E-02
   1      -21.516719
   2      -10.642262
   3       -9.357970
   4       -8.357444
   5        1.797871
   6        2.573840
   7        2.825488
   8        3.042461
 
  0.2682927E+00  0.2775558E-16  0.0000000E+00  0.1189768E-02
   1      -21.226339
   2      -11.287523
   3       -9.022415
   4       -8.598344
   5        2.197415
   6        2.941116
   7        3.238006
   8        3.379539
 
  0.2926829E+00  0.0000000E+00  0.0000000E+00  0.1189768E-02
   1      -20.909750
   2      -11.936181
   3       -8.823194
   4       -8.660602
   5        2.633919
   6        2.666749
   7        3.471915
   8        3.689761
 
  0.3170732E+00  0.0000000E+00  0.0000000E+00  0.1189768E-02
   1      -20.567496
   2      -12.582942
   3       -9.028768
   4       -8.275252
   5        2.003858
   6        3.106251
   7        3.936440
   8        4.180289
 
  0.3414634E+00  0.2775558E-16  0.0000000E+00  0.1189768E-02
   1      -20.200332
   2      -13.223453
   3       -9.212725
   4       -7.870167
   5        1.331383
   6        3.609883
   7        4.343556
   8        4.451929
 
  0.3658537E+00  0.0000000E+00  0.0000000E+00  0.1189768E-02
   1      -19.809303
   2      -13.853812
   3       -9.373740
   4       -7.451738
   5        0.671119
   6        4.087872
   7        4.337624
   8        5.007203
 
  0.3902439E+00  0.2775558E-16  0.0000000E+00  0.1189768E-02
   1      -19.396042
   2      -14.469644
   3       -9.509741
   4       -7.028695
   5        0.040963
   6        4.153599
   7        4.789525
   8        5.600022
 
  0.4146341E+00  0.2775558E-16  0.0000000E+00  0.1189768E-02
   1      -18.963510
   2      -15.066387
   3       -9.619928
   4       -6.615843
   5       -0.541945
   6        4.109551
   7        5.398736
   8        6.228973
 
  0.4390244E+00  0.2775558E-16  0.0000000E+00  0.1189768E-02
   1      -18.518188
   2      -15.636001
   3       -9.703019
   4       -6.238153
   5       -1.049538
   6        4.070180
   7        6.050919
   8        6.892589
 
  0.4634146E+00 -0.2775558E-16  0.0000000E+00  0.1189768E-02
   1      -18.078931
   2      -16.158638
   3       -9.758870
   4       -5.934990
   5       -1.440604
   6        4.042762
   7        6.738018
   8        7.587955
 
  0.4878049E+00  0.2775558E-16  0.0000000E+00  0.1189768E-02
   1      -17.724526
   2      -16.554807
   3       -9.786973
   4       -5.759938
   5       -1.659483
   6        4.029133
   7        7.453298
   8        8.218261
 
  0.0000000E+00  0.2439024E-01  0.0000000E+00  0.1189768E-02
   1      -22.900443
   2      -10.990913
   3       -6.459633
   4       -6.432000
   5       -0.092221
   6        0.665468
   7        0.880557
   8        1.107443
 
  0.2439024E-01  0.2439024E-01  0.0000000E+00  0.1189768E-02
   1      -22.872271
   2      -10.957407
   3       -6.574282
   4       -6.494283
   5       -0.054004
   6        0.704269
   7        0.919849
   8        1.146604
 
  0.4878049E-01  0.2439024E-01  0.0000000E+00  0.1189768E-02
   1      -22.815949
   2      -10.890224
   3       -6.796530
   4       -6.614821
   5        0.022443
   6        0.781893
   7        0.998434
   8        1.224938
 
  0.7317073E-01  0.2439024E-01  0.0000000E+00  0.1189768E-02
   1      -22.731528
   2      -10.789435
   3       -7.116125
   4       -6.785072
   5        0.137133
   6        0.898323
   7        1.116310
   8        1.342440
 
  0.9756098E-01  0.2439024E-01  0.0000000E+00  0.1189768E-02
   1      -22.619087
   2      -10.655480
   3       -7.520133
   4       -6.994401
   5        0.290065
   6        1.053482
   7        1.273479
   8        1.499093
 
  0.1219512E+00  0.2439024E-01  0.0000000E+00  0.1189768E-02
   1      -22.478734
   2      -10.488598
   3       -7.994016
   4       -7.231630
   5        0.481211
   6        1.247304
   7        1.469941
   8        1.694879
 
  0.1463415E+00  0.2439024E-01  0.0000000E+00  0.1189768E-02
   1      -22.310616
   2      -10.289415
   3       -8.524107
   4       -7.486824
   5        0.710506
   6        1.479633
   7        1.705694
   8        1.929763
 
  0.1707317E+00  0.2439024E-01  0.0000000E+00  0.1189768E-02
   1      -22.114900
   2      -10.058268
   3       -9.096584
   4       -7.750792
   5        0.977900
   6        1.750280
   7        1.980738
   8        2.203694
 
  0.1951220E+00  0.2439024E-01  0.0000000E+00  0.1189768E-02
   1      -21.891784
   2       -9.795719
   3       -9.700129
   4       -8.015344
   5        1.283310
   6        2.058796
   7        2.295071
   8        2.516574
 
  0.2195122E+00  0.2439024E-01  0.0000000E+00  0.1189768E-02
   1      -21.641540
   2      -10.325623
   3       -9.503034
   4       -8.274954
   5        1.626557
   6        2.403759
   7        2.648688
   8        2.867903
 
  0.2439024E+00  0.2439024E-01  0.0000000E+00  0.1189768E-02
   1      -21.364482
   2      -10.964353
   3       -9.181391
   4       -8.523851
   5        2.007435
   6        2.777798
   7        3.041585
   8        3.253093
 
  0.2682927E+00  0.2439024E-01  0.0000000E+00  0.1189768E-02
   1      -21.060993
   2      -11.609986
   3       -8.832555
   4       -8.758000
   5        2.425602
   6        2.943494
   7        3.307407
   8        3.473731
 
  0.2926829E+00  0.2439024E-01  0.0000000E+00  0.1189768E-02
   1      -20.731565
   2      -12.256781
   3       -8.974387
   4       -8.458655
   5        2.330043
   6        2.880367
   7        3.708645
   8        3.945054
 
  0.3170732E+00  0.2439024E-01  0.0000000E+00  0.1189768E-02
   1      -20.376825
   2      -12.899617
   3       -9.170125
   4       -8.062693
   5        1.658847
   6        3.369872
   7        4.202243
   8        4.432747
 
  0.3414634E+00  0.2439024E-01  0.0000000E+00  0.1189768E-02
   1      -19.997656
   2      -13.534456
   3       -9.343223
   4       -7.650287
   5        0.992151
   6        3.883820
   7        4.378727
   8        4.738060
 
  0.3658537E+00  0.2439024E-01  0.0000000E+00  0.1189768E-02
   1      -19.595363
   2      -14.157220
   3       -9.492167
   4       -7.228159
   5        0.346471
   6        4.220134
   7        4.536939
   8        5.312104
 
  0.3902439E+00  0.2439024E-01  0.0000000E+00  0.1189768E-02
   1      -19.172093
   2      -14.763477
   3       -9.615489
   4       -6.807736
   5       -0.261732
   6        4.196226
   7        5.102236
   8        5.922816
 
  0.4146341E+00  0.2439024E-01  0.0000000E+00  0.1189768E-02
   1      -18.732107
   2      -15.347457
   3       -9.712524
   4       -6.408374
   5       -0.810852
   6        4.153066
   7        5.734163
   8        6.568797
 
  0.4390244E+00  0.2439024E-01  0.0000000E+00  0.1189768E-02
   1      -18.286033
   2      -15.897209
   3       -9.782180
   4       -6.061609
   5       -1.266121
   6        4.119294
   7        6.404027
   8        7.247838
 
  0.4634146E+00  0.2439024E-01  0.0000000E+00  0.1189768E-02
   1      -17.870721
   2      -16.374977
   3       -9.824155
   4       -5.815054
   5       -1.577916
   6        4.098787
   7        7.106406
   8        7.955326
 
  0.4878049E+00  0.2439024E-01  0.0000000E+00  0.1189768E-02
   1      -17.652336
   2      -16.614182
   3       -9.838187
   4       -5.723713
   5       -1.691104
   6        4.091956
   7        7.768007
   8        7.922221
 
 -0.4878049E+00  0.2439024E-01  0.0000000E+00  0.1189768E-02
   1      -17.870725
   2      -16.374973
   3       -9.824157
   4       -5.815056
   5       -1.577914
   6        4.098788
   7        7.106398
   8        7.955319
 
 -0.4634146E+00  0.2439024E-01  0.0000000E+00  0.1189768E-02
   1      -18.286038
   2      -15.897203
   3       -9.782182
   4       -6.061612
   5       -1.266118
   6        4.119296
   7        6.404020
   8        7.247831
 
 -0.4390244E+00  0.2439024E-01  0.0000000E+00  0.1189768E-02
   1      -18.732112
   2      -15.347450
   3       -9.712528
   4       -6.408378
   5       -0.810848
   6        4.153069
   7        5.734157
   8        6.568790
 
 -0.4146341E+00  0.2439024E-01  0.0000000E+00  0.1189768E-02
   1      -19.172098
   2      -14.763470
   3       -9.615494
   4       -6.807740
   5       -0.261727
   6        4.196230
   7        5.102230
   8        5.922810
 
 -0.3902439E+00  0.2439024E-01  0.0000000E+00  0.1189768E-02
   1      -19.595367
   2      -14.157212
   3       -9.492173
   4       -7.228163
   5        0.346476
   6        4.220136
   7        4.536936
   8        5.312098
 
 -0.3658537E+00  0.2439024E-01  0.0000000E+00  0.1189768E-02
   1      -19.997660
   2      -13.534447
   3       -9.343230
   4       -7.650291
   5        0.992156
   6        3.883814
   7        4.378733
   8        4.738054
 
 -0.3414634E+00  0.2439024E-01  0.0000000E+00  0.1189768E-02
   1      -20.376829
   2      -12.899608
   3       -9.170133
   4       -8.062697
   5        1.658852
   6        3.369867
   7        4.202238
   8        4.432786
 
 -0.3170732E+00  0.2439024E-01  0.0000000E+00  0.1189768E-02
   1      -20.731568
   2      -12.256772
   3       -8.974397
   4       -8.458659
   5        2.330047
   6        2.880362
   7        3.708640
   8        3.945050
 
 -0.2926829E+00  0.2439024E-01  0.0000000E+00  0.1189768E-02
   1      -21.060996
   2      -11.609977
   3       -8.832559
   4       -8.758010
   5        2.425598
   6        2.943497
   7        3.307404
   8        3.473727
 
 -0.2682927E+00  0.2439024E-01  0.0000000E+00  0.1189768E-02
   1      -21.364485
   2      -10.964344
   3       -9.181394
   4       -8.523862
   5        2.007431
   6        2.777864
   7        3.041583
   8        3.253404
 
 -0.2439024E+00  0.2439024E-01  0.0000000E+00  0.1189768E-02
   1      -21.641543
   2      -10.325613
   3       -9.503037
   4       -8.274966
   5        1.626554
   6        2.403761
   7        2.648684
   8        2.867893
 
 -0.2195122E+00  0.2439024E-01  0.0000000E+00  0.1189768E-02
   1      -21.891786
   2       -9.795722
   3       -9.700120
   4       -8.015356
   5        1.283307
   6        2.058793
   7        2.295068
   8        2.516554
 
 -0.1951220E+00  0.2439024E-01  0.0000000E+00  0.1189768E-02
   1      -22.114902
   2      -10.058271
   3       -9.096575
   4       -7.750803
   5        0.977897
   6        1.750277
   7        1.980735
   8        2.203697
 
 -0.1707317E+00  0.2439024E-01  0.0000000E+00  0.1189768E-02
   1      -22.310618
   2      -10.289418
   3       -8.524099
   4       -7.486834
   5        0.710503
   6        1.479630
   7        1.705691
   8        1.929762
 
 -0.1463415E+00  0.2439024E-01  0.0000000E+00  0.1189768E-02
   1      -22.478736
   2      -10.488600
   3       -7.994010
   4       -7.231639
   5        0.481208
   6        1.247302
   7        1.469939
   8        1.694877
 
 -0.1219512E+00  0.2439024E-01  0.0000000E+00  0.1189768E-02
   1      -22.619088
   2      -10.655482
   3       -7.520129
   4       -6.994405
   5        0.290063
   6        1.053480
   7        1.273477
   8        1.499091
 
 -0.9756098E-01  0.2439024E-01  0.0000000E+00  0.1189768E-02
   1      -22.731529
   2      -10.789437
   3       -7.116127
   4       -6.785071
   5        0.137132
   6        0.898322
   7        1.116309
   8        1.342441
 
 -0.7317073E-01  0.2439024E-01  0.0000000E+00  0.1189768E-02
   1      -22.815950
   2      -10.890225
   3       -6.796539
   4       -6.614813
   5        0.022442
   6        0.781892
   7        0.998433
   8        1.224936
 
 -0.4878049E-01  0.2439024E-01  0.0000000E+00  0.1189768E-02
   1      -22.872272
   2      -10.957408
   3       -6.574302
   4       -6.494263
   5       -0.054005
   6        0.704268
   7        0.919849
   8        1.146602
 
 -0.2439024E-01  0.2439024E-01  0.0000000E+00  0.1189768E-02
   1      -22.900444
   2      -10.990914
   3       -6.459657
   4       -6.431976
   5       -0.092222
   6        0.665468
   7        0.880557
   8        1.107438
 
  0.0000000E+00  0.4878049E-01  0.0000000E+00  0.1189768E-02
   1      -22.858188
   2      -10.940622
   3       -6.632491
   4       -6.522931
   5       -0.034897
   6        0.723673
   7        0.939496
   8        1.166187
 
  0.2439024E-01  0.4878049E-01  0.0000000E+00  0.1189768E-02
   1      -22.815949
   2      -10.890224
   3       -6.796515
   4       -6.614836
   5        0.022444
   6        0.781894
   7        0.998434
   8        1.224938
 
  0.4878049E-01  0.4878049E-01  0.0000000E+00  0.1189768E-02
   1      -22.745594
   2      -10.806306
   3       -7.055281
   4       -6.767040
   5        0.118020
   6        0.878909
   7        1.096665
   8        1.322856
 
  0.7317073E-01  0.4878049E-01  0.0000000E+00  0.1189768E-02
   1      -22.647186
   2      -10.689019
   3       -7.400320
   4       -6.967195
   5        0.251851
   6        1.014691
   7        1.234188
   8        1.459929
 
  0.9756098E-01  0.4878049E-01  0.0000000E+00  0.1189768E-02
   1      -22.520819
   2      -10.538625
   3       -7.821686
   4       -7.202063
   5        0.423917
   6        1.189181
   7        1.411004
   8        1.636150
 
  0.1219512E+00  0.4878049E-01  0.0000000E+00  0.1189768E-02
   1      -22.366628
   2      -10.355777
   3       -8.307525
   4       -7.459300
   5        0.634165
   6        1.402241
   7        1.627113
   8        1.851482
 
  0.1463415E+00  0.4878049E-01  0.0000000E+00  0.1189768E-02
   1      -22.184758
   2      -10.140556
   3       -8.844328
   4       -7.728508
   5        0.882560
   6        1.653775
   7        1.882513
   8        2.105909
 
  0.1707317E+00  0.4878049E-01  0.0000000E+00  0.1189768E-02
   1      -21.975400
   2       -9.893849
   3       -9.420225
   4       -8.000614
   5        1.169016
   6        1.943436
   7        2.177203
   8        2.399346
 
  0.1951220E+00  0.4878049E-01  0.0000000E+00  0.1189768E-02
   1      -21.738790
   2      -10.024822
   3       -9.616445
   4       -8.268922
   5        1.493412
   6        2.270488
   7        2.511181
   8        2.731672
 
  0.2195122E+00  0.4878049E-01  0.0000000E+00  0.1189768E-02
   1      -21.475223
   2      -10.649132
   3       -9.309259
   4       -8.528321
   5        1.855568
   6        2.632098
   7        2.884444
   8        3.101234
 
  0.2439024E+00  0.4878049E-01  0.0000000E+00  0.1189768E-02
   1      -21.185047
   2      -11.285081
   3       -8.973878
   4       -8.773718
   5        2.255249
   6        2.992010
   7        3.296974
   8        3.362386
 
  0.2682927E+00  0.4878049E-01  0.0000000E+00  0.1189768E-02
   1      -20.868702
   2      -11.926326
   3       -9.002199
   4       -8.612510
   5        2.628280
   6        2.692033
   7        3.520047
   8        3.748758
 
  0.2926829E+00  0.4878049E-01  0.0000000E+00  0.1189768E-02
   1      -20.526741
   2      -12.567089
   3       -9.210532
   4       -8.227515
   5        1.967202
   6        3.165089
   7        3.989292
   8        4.239669
 
  0.3170732E+00  0.4878049E-01  0.0000000E+00  0.1189768E-02
   1      -20.159914
   2      -13.202900
   3       -9.396818
   4       -7.822578
   5        1.300396
   6        3.671804
   7        4.505147
   8        4.590902
 
  0.3414634E+00  0.4878049E-01  0.0000000E+00  0.1189768E-02
   1      -19.769287
   2      -13.829195
   3       -9.559012
   4       -7.404219
   5        0.647556
   6        4.191948
   7        4.544638
   8        5.059929
 
  0.3658537E+00  0.4878049E-01  0.0000000E+00  0.1189768E-02
   1      -19.356520
   2      -14.441975
   3       -9.696222
   4       -6.980852
   5        0.022120
   6        4.400069
   7        4.854373
   8        5.651663
 
  0.3902439E+00  0.4878049E-01  0.0000000E+00  0.1189768E-02
   1      -18.924569
   2      -15.036079
   3       -9.807093
   4       -6.567758
   5       -0.557395
   6        4.363505
   7        5.455706
   8        6.278768
 
  0.4146341E+00  0.4878049E-01  0.0000000E+00  0.1189768E-02
   1      -18.479980
   2      -15.603625
   3       -9.891047
   4       -6.189095
   5       -1.063047
   6        4.324971
   7        6.106193
   8        6.939321
 
  0.4390244E+00  0.4878049E-01  0.0000000E+00  0.1189768E-02
   1      -18.041584
   2      -16.124469
   3       -9.947168
   4       -5.884672
   5       -1.453215
   6        4.297715
   7        6.791968
   8        7.629550
 
  0.4634146E+00  0.4878049E-01  0.0000000E+00  0.1189768E-02
   1      -17.688093
   2      -16.519227
   3       -9.975121
   4       -5.708516
   5       -1.671405
   6        4.284344
   7        7.505428
   8        8.295425
 
  0.4878049E+00  0.4878049E-01  0.0000000E+00  0.1189768E-02
   1      -17.688099
   2      -16.519221
   3       -9.975122
   4       -5.708518
   5       -1.671403
   6        4.284345
   7        7.505412
   8        8.283912
 
 -0.4878049E+00  0.4878049E-01  0.0000000E+00  0.1189768E-02
   1      -18.041593
   2      -16.124457
   3       -9.947172
   4       -5.884677
   5       -1.453209
   6        4.297718
   7        6.791954
   8        7.629536
 
 -0.4634146E+00  0.4878049E-01  0.0000000E+00  0.1189768E-02
   1      -18.479990
   2      -15.603611
   3       -9.891053
   4       -6.189102
   5       -1.063038
   6        4.324976
   7        6.106180
   8        6.939308
 
 -0.4390244E+00  0.4878049E-01  0.0000000E+00  0.1189768E-02
   1      -18.924579
   2      -15.036064
   3       -9.807102
   4       -6.567766
   5       -0.557385
   6        4.363511
   7        5.455694
   8        6.278755
 
 -0.4146341E+00  0.4878049E-01  0.0000000E+00  0.1189768E-02
   1      -19.356529
   2      -14.441960
   3       -9.696233
   4       -6.980860
   5        0.022131
   6        4.400075
   7        4.854364
   8        5.651651
 
 -0.3902439E+00  0.4878049E-01  0.0000000E+00  0.1189768E-02
   1      -19.769295
   2      -13.829179
   3       -9.559025
   4       -7.404228
   5        0.647566
   6        4.191937
   7        4.544648
   8        5.059918
 
 -0.3658537E+00  0.4878049E-01  0.0000000E+00  0.1189768E-02
   1      -20.159921
   2      -13.202883
   3       -9.396833
   4       -7.822587
   5        1.300406
   6        3.671793
   7        4.505136
   8        4.590914
 
 -0.3414634E+00  0.4878049E-01  0.0000000E+00  0.1189768E-02
   1      -20.526748
   2      -12.567072
   3       -9.210549
   4       -8.227523
   5        1.967211
   6        3.165079
   7        3.989282
   8        4.239660
 
 -0.3170732E+00  0.4878049E-01  0.0000000E+00  0.1189768E-02
   1      -20.868709
   2      -11.926308
   3       -9.002218
   4       -8.612517
   5        2.628289
   6        2.692024
   7        3.520037
   8        3.748749
 
 -0.2926829E+00  0.4878049E-01  0.0000000E+00  0.1189768E-02
   1      -21.185053
   2      -11.285062
   3       -8.973885
   4       -8.773739
   5        2.255241
   6        2.992006
   7        3.296965
   8        3.362397
 
 -0.2682927E+00  0.4878049E-01  0.0000000E+00  0.1189768E-02
   1      -21.475228
   2      -10.649113
   3       -9.309266
   4       -8.528343
   5        1.855560
   6        2.632095
   7        2.884437
   8        3.101229
 
 -0.2439024E+00  0.4878049E-01  0.0000000E+00  0.1189768E-02
   1      -21.738795
   2      -10.024804
   3       -9.616451
   4       -8.268944
   5        1.493405
   6        2.270482
   7        2.511176
   8        2.731580
 
 -0.2195122E+00  0.4878049E-01  0.0000000E+00  0.1189768E-02
   1      -21.975404
   2       -9.893854
   3       -9.420207
   4       -8.000636
   5        1.169010
   6        1.943430
   7        2.177197
   8        2.399341
 
 -0.1951220E+00  0.4878049E-01  0.0000000E+00  0.1189768E-02
   1      -22.184762
   2      -10.140561
   3       -8.844312
   4       -7.728528
   5        0.882555
   6        1.653769
   7        1.882507
   8        2.105903
 
 -0.1707317E+00  0.4878049E-01  0.0000000E+00  0.1189768E-02
   1      -22.366631
   2      -10.355781
   3       -8.307513
   4       -7.459316
   5        0.634160
   6        1.402236
   7        1.627108
   8        1.851478
 
 -0.1463415E+00  0.4878049E-01  0.0000000E+00  0.1189768E-02
   1      -22.520822
   2      -10.538628
   3       -7.821680
   4       -7.202073
   5        0.423913
   6        1.189177
   7        1.411001
   8        1.636146
 
 -0.1219512E+00  0.4878049E-01  0.0000000E+00  0.1189768E-02
   1      -22.647188
   2      -10.689022
   3       -7.400322
   4       -6.967195
   5        0.251848
   6        1.014688
   7        1.234185
   8        1.459926
 
 -0.9756098E-01  0.4878049E-01  0.0000000E+00  0.1189768E-02
   1      -22.745596
   2      -10.806308
   3       -7.055295
   4       -6.767028
   5        0.118017
   6        0.878907
   7        1.096662
   8        1.322852
 
 -0.7317073E-01  0.4878049E-01  0.0000000E+00  0.1189768E-02
   1      -22.815950
   2      -10.890225
   3       -6.796541
   4       -6.614811
   5        0.022442
   6        0.781892
   7        0.998433
   8        1.224948
 
 -0.4878049E-01  0.4878049E-01  0.0000000E+00  0.1189768E-02
   1      -22.858189
   2      -10.940623
   3       -6.632519
   4       -6.522904
   5       -0.034897
   6        0.723673
   7        0.939495
   8        1.166191
 
 -0.2439024E-01  0.4878049E-01  0.0000000E+00  0.1189768E-02
   1      -22.872271
   2      -10.957407
   3       -6.574285
   4       -6.494280
   5       -0.054004
   6        0.704269
   7        0.919849
   8        1.146603
 
  0.0000000E+00  0.7317073E-01  0.0000000E+00  0.1189768E-02
   1      -22.787801
   2      -10.856664
   3       -6.910321
   4       -6.667118
   5        0.060669
   6        0.820700
   7        1.037727
   8        1.264107
 
  0.2439024E-01  0.7317073E-01  0.0000000E+00  0.1189768E-02
   1      -22.731527
   2      -10.789434
   3       -7.116099
   4       -6.785098
   5        0.137134
   6        0.898325
   7        1.116311
   8        1.342442
 
  0.4878049E-01  0.7317073E-01  0.0000000E+00  0.1189768E-02
   1      -22.647186
   2      -10.689018
   3       -7.400304
   4       -6.967211
   5        0.251852
   6        1.014692
   7        1.234189
   8        1.459930
 
  0.7317073E-01  0.7317073E-01  0.0000000E+00  0.1189768E-02
   1      -22.534851
   2      -10.555409
   3       -7.756019
   4       -7.199788
   5        0.404828
   6        1.169791
   7        1.391360
   8        1.616569
 
  0.9756098E-01  0.7317073E-01  0.0000000E+00  0.1189768E-02
   1      -22.394644
   2      -10.388935
   3       -8.178811
   4       -7.465430
   5        0.596016
   6        1.363546
   7        1.587823
   8        1.812343
 
  0.1219512E+00  0.7317073E-01  0.0000000E+00  0.1189768E-02
   1      -22.226702
   2      -10.190070
   3       -8.659979
   4       -7.748100
   5        0.825386
   6        1.595838
   7        1.823579
   8        2.047225
 
  0.1463415E+00  0.7317073E-01  0.0000000E+00  0.1189768E-02
   1      -22.031195
   2       -9.959231
   3       -9.190027
   4       -8.035909
   5        1.092869
   6        1.866480
   7        2.098626
   8        2.321169
 
  0.1707317E+00  0.7317073E-01  0.0000000E+00  0.1189768E-02
   1      -21.808340
   2       -9.758756
   3       -9.697434
   4       -8.320121
   5        1.398365
   6        2.175005
   7        2.412964
   8        2.634046
 
  0.1951220E+00  0.7317073E-01  0.0000000E+00  0.1189768E-02
   1      -21.558409
   2      -10.355799
   3       -9.405473
   4       -8.594808
   5        1.741719
   6        2.520138
   7        2.766588
   8        2.985369
 
  0.2195122E+00  0.7317073E-01  0.0000000E+00  0.1189768E-02
   1      -21.281716
   2      -10.972113
   3       -9.084433
   4       -8.855704
   5        2.122767
   6        2.893323
   7        3.159489
   8        3.366951
 
  0.2439024E+00  0.7317073E-01  0.0000000E+00  0.1189768E-02
   1      -20.978680
   2      -11.600100
   3       -9.099353
   4       -8.736192
   5        2.541201
   6        2.885812
   7        3.374026
   8        3.591674
 
  0.2682927E+00  0.7317073E-01  0.0000000E+00  0.1189768E-02
   1      -20.649783
   2      -12.232620
   3       -9.322613
   4       -8.363000
   5        2.248122
   6        2.996603
   7        3.813055
   8        4.063105
 
  0.2926829E+00  0.7317073E-01  0.0000000E+00  0.1189768E-02
   1      -20.295676
   2      -12.864280
   3       -9.523511
   4       -7.967759
   5        1.588795
   6        3.488025
   7        4.308925
   8        4.573521
 
  0.3170732E+00  0.7317073E-01  0.0000000E+00  0.1189768E-02
   1      -19.917262
   2      -13.490038
   3       -9.700514
   4       -7.555447
   5        0.935684
   6        4.012402
   7        4.844098
   8        4.858225
 
  0.3414634E+00  0.7317073E-01  0.0000000E+00  0.1189768E-02
   1      -19.515858
   2      -14.105461
   3       -9.852237
   4       -7.133112
   5        0.301700
   6        4.540027
   7        4.827156
   8        5.416258
 
  0.3658537E+00  0.7317073E-01  0.0000000E+00  0.1189768E-02
   1      -19.093661
   2      -14.705920
   3       -9.977593
   4       -6.712354
   5       -0.297888
   6        4.685367
   7        5.222840
   8        6.023716
 
  0.3902439E+00  0.7317073E-01  0.0000000E+00  0.1189768E-02
   1      -18.654968
   2      -15.285060
   3      -10.075867
   4       -6.311677
   5       -0.840817
   6        4.649652
   7        5.846411
   8        6.664442
 
  0.4146341E+00  0.7317073E-01  0.0000000E+00  0.1189768E-02
   1      -18.210441
   2      -15.830879
   3      -10.146562
   4       -5.962500
   5       -1.293024
   6        4.617123
   7        6.513350
   8        7.334692
 
  0.4390244E+00  0.7317073E-01  0.0000000E+00  0.1189768E-02
   1      -17.796980
   2      -16.305413
   3      -10.189064
   4       -5.713254
   5       -1.604481
   6        4.596834
   7        7.212635
   8        8.025120
 
  0.4634146E+00  0.7317073E-01  0.0000000E+00  0.1189768E-02
   1      -17.579941
   2      -16.542919
   3      -10.203163
   4       -5.621042
   5       -1.717767
   6        4.589956
   7        7.867004
   8        8.027727
 
  0.4878049E+00  0.7317073E-01  0.0000000E+00  0.1189768E-02
   1      -17.796992
   2      -16.305398
   3      -10.189068
   4       -5.713259
   5       -1.604475
   6        4.596837
   7        7.212613
   8        8.025100
 
 -0.4878049E+00  0.7317073E-01  0.0000000E+00  0.1189768E-02
   1      -18.210455
   2      -15.830860
   3      -10.146569
   4       -5.962510
   5       -1.293013
   6        4.617129
   7        6.513329
   8        7.334671
 
 -0.4634146E+00  0.7317073E-01  0.0000000E+00  0.1189768E-02
   1      -18.654983
   2      -15.285039
   3      -10.075878
   4       -6.311689
   5       -0.840804
   6        4.649659
   7        5.846392
   8        6.664422
 
 -0.4390244E+00  0.7317073E-01  0.0000000E+00  0.1189768E-02
   1      -19.093675
   2      -14.705898
   3       -9.977607
   4       -6.712367
   5       -0.297873
   6        4.685374
   7        5.222825
   8        6.023697
 
 -0.4146341E+00  0.7317073E-01  0.0000000E+00  0.1189768E-02
   1      -19.515871
   2      -14.105437
   3       -9.852254
   4       -7.133125
   5        0.301716
   6        4.540011
   7        4.827167
   8        5.416240
 
 -0.3902439E+00  0.7317073E-01  0.0000000E+00  0.1189768E-02
   1      -19.917274
   2      -13.490013
   3       -9.700535
   4       -7.555460
   5        0.935699
   6        4.012385
   7        4.844082
   8        4.858239
 