       N       E                     dE             d eps       ncg     rms          rms(c)
DAV:   1     0.268725739228E+02    0.26873E+02   -0.28093E+03 17920   0.580E+02
DAV:   2    -0.167908025806E+02   -0.43663E+02   -0.37745E+02 20760   0.104E+02
DAV:   3    -0.196834929027E+02   -0.28927E+01   -0.27223E+01 19736   0.337E+01
DAV:   4    -0.197360282248E+02   -0.52535E-01   -0.52535E-01 22464   0.311E+00
DAV:   5    -0.197365565582E+02   -0.52833E-03   -0.52833E-03 19536   0.166E-01    0.552E+00
DAV:   6    -0.188210774139E+02    0.91548E+00   -0.88533E-01 17624   0.675E+00    0.291E+00
DAV:   7    -0.184689081580E+02    0.35217E+00   -0.10521E+00 21240   0.721E+00    0.500E-01
DAV:   8    -0.184592635396E+02    0.96446E-02   -0.94728E-03 21912   0.869E-01    0.874E-02
DAV:   9    -0.184571980634E+02    0.20655E-02   -0.17277E-03 22968   0.238E-01    0.609E-02
DAV:  10    -0.184559023044E+02    0.12958E-02   -0.17307E-03 20168   0.205E-01    0.274E-02
DAV:  11    -0.184561922723E+02   -0.28997E-03   -0.33632E-04 19416   0.906E-02    0.132E-02
DAV:  12    -0.184568561103E+02   -0.66384E-03   -0.51278E-05 17840   0.415E-02    0.833E-03
DAV:  13    -0.184575601555E+02   -0.70405E-03   -0.12726E-04 16208   0.434E-02    0.322E-03
DAV:  14    -0.184576993881E+02   -0.13923E-03   -0.97534E-06 21008   0.158E-02    0.225E-03
DAV:  15    -0.184577527543E+02   -0.53366E-04   -0.80444E-06 22136   0.121E-02    0.905E-04
DAV:  16    -0.184577776998E+02   -0.24945E-04   -0.35634E-07 25416   0.325E-03    0.327E-04
DAV:  17    -0.184577821769E+02   -0.44771E-05   -0.20715E-07 17120   0.211E-03    0.240E-04
DAV:  18    -0.184577847901E+02   -0.26133E-05   -0.43914E-08 17888   0.124E-03    0.812E-05
DAV:  19    -0.184577853077E+02   -0.51757E-06   -0.39956E-09 19920   0.506E-04
   1 F= -.18457785E+02 E0= -.18457785E+02  d E =0.000000E+00
