<?xml version="1.0" encoding="ISO-8859-1"?>
<modeling>
 <generator>
  <i name="program" type="string">vasp </i>
  <i name="version" type="string">5.2.11  </i>
  <i name="subversion" type="string">18Jan11 complex  parallel </i>
  <i name="platform" type="string">LinuxIFC </i>
  <i name="date" type="string">2012 06 25 </i>
  <i name="time" type="string">23:59:21 </i>
 </generator>
 <incar>
  <i type="string" name="SYSTEM"> "graphene"</i>
  <i type="string" name="PREC">accurate</i>
  <i type="int" name="NELMIN">     4</i>
  <i name="EDIFF">      0.00000100</i>
  <i type="int" name="NSW">     0</i>
  <i name="SYMPREC">      0.00000010</i>
  <i type="int" name="NEDOS">  2000</i>
  <i type="int" name="ISMEAR">    -5</i>
  <i type="logical" name="LORBIT"> F  </i>
  <i type="logical" name="LPEAD"> F  </i>
  <i type="logical" name="LCALCPOL"> F  </i>
  <i type="logical" name="LCALCEPS"> F  </i>
  <v name="EFIELD_PEAD">      0.00000000      0.00000000      0.00000000</v>
  <i type="logical" name="LEFG"> F  </i>
  <i type="logical" name="LRHFATM"> F  </i>
  <i type="string" name="METAGGA">--</i>
  <i type="int" name="LMAXTAU">     0</i>
 </incar>
 <kpoints>
  <generation param="Gamma">
   <v type="int" name="divisions">      41       41        1 </v>
   <v name="usershift">      0.00000000       0.00000000       0.00000000 </v>
   <v name="genvec1">      0.02439024       0.00000000       0.00000000 </v>
   <v name="genvec2">      0.00000000       0.02439024       0.00000000 </v>
   <v name="genvec3">      0.00000000       0.00000000       1.00000000 </v>
   <v name="shift">      0.00000000       0.00000000       0.00000000 </v>
  </generation>
  <varray name="kpointlist" >
   <v>       0.00000000       0.00000000       0.00000000 </v>
   <v>       0.02439024       0.00000000       0.00000000 </v>
   <v>       0.04878049       0.00000000       0.00000000 </v>
   <v>       0.07317073       0.00000000       0.00000000 </v>
   <v>       0.09756098       0.00000000       0.00000000 </v>
   <v>       0.12195122       0.00000000       0.00000000 </v>
   <v>       0.14634146       0.00000000       0.00000000 </v>
   <v>       0.17073171       0.00000000       0.00000000 </v>
   <v>       0.19512195       0.00000000       0.00000000 </v>
   <v>       0.21951220       0.00000000       0.00000000 </v>
   <v>       0.24390244       0.00000000       0.00000000 </v>
   <v>       0.26829268       0.00000000       0.00000000 </v>
   <v>       0.29268293       0.00000000       0.00000000 </v>
   <v>       0.31707317       0.00000000       0.00000000 </v>
   <v>       0.34146341       0.00000000       0.00000000 </v>
   <v>       0.36585366       0.00000000       0.00000000 </v>
   <v>       0.39024390       0.00000000       0.00000000 </v>
   <v>       0.41463415       0.00000000       0.00000000 </v>
   <v>       0.43902439       0.00000000       0.00000000 </v>
   <v>       0.46341463       0.00000000       0.00000000 </v>
   <v>       0.48780488       0.00000000       0.00000000 </v>
   <v>       0.00000000       0.02439024       0.00000000 </v>
   <v>       0.02439024       0.02439024       0.00000000 </v>
   <v>       0.04878049       0.02439024       0.00000000 </v>
   <v>       0.07317073       0.02439024       0.00000000 </v>
   <v>       0.09756098       0.02439024       0.00000000 </v>
   <v>       0.12195122       0.02439024       0.00000000 </v>
   <v>       0.14634146       0.02439024       0.00000000 </v>
   <v>       0.17073171       0.02439024       0.00000000 </v>
   <v>       0.19512195       0.02439024       0.00000000 </v>
   <v>       0.21951220       0.02439024       0.00000000 </v>
   <v>       0.24390244       0.02439024       0.00000000 </v>
   <v>       0.26829268       0.02439024       0.00000000 </v>
   <v>       0.29268293       0.02439024       0.00000000 </v>
   <v>       0.31707317       0.02439024       0.00000000 </v>
   <v>       0.34146341       0.02439024       0.00000000 </v>
   <v>       0.36585366       0.02439024       0.00000000 </v>
   <v>       0.39024390       0.02439024       0.00000000 </v>
   <v>       0.41463415       0.02439024       0.00000000 </v>
   <v>       0.43902439       0.02439024       0.00000000 </v>
   <v>       0.46341463       0.02439024       0.00000000 </v>
   <v>       0.48780488       0.02439024       0.00000000 </v>
   <v>      -0.48780488       0.02439024       0.00000000 </v>
   <v>      -0.46341463       0.02439024       0.00000000 </v>
   <v>      -0.43902439       0.02439024       0.00000000 </v>
   <v>      -0.41463415       0.02439024       0.00000000 </v>
   <v>      -0.39024390       0.02439024       0.00000000 </v>
   <v>      -0.36585366       0.02439024       0.00000000 </v>
   <v>      -0.34146341       0.02439024       0.00000000 </v>
   <v>      -0.31707317       0.02439024       0.00000000 </v>
   <v>      -0.29268293       0.02439024       0.00000000 </v>
   <v>      -0.26829268       0.02439024       0.00000000 </v>
   <v>      -0.24390244       0.02439024       0.00000000 </v>
   <v>      -0.21951220       0.02439024       0.00000000 </v>
   <v>      -0.19512195       0.02439024       0.00000000 </v>
   <v>      -0.17073171       0.02439024       0.00000000 </v>
   <v>      -0.14634146       0.02439024       0.00000000 </v>
   <v>      -0.12195122       0.02439024       0.00000000 </v>
   <v>      -0.09756098       0.02439024       0.00000000 </v>
   <v>      -0.07317073       0.02439024       0.00000000 </v>
   <v>      -0.04878049       0.02439024       0.00000000 </v>
   <v>      -0.02439024       0.02439024       0.00000000 </v>
   <v>       0.00000000       0.04878049       0.00000000 </v>
   <v>       0.02439024       0.04878049       0.00000000 </v>
   <v>       0.04878049       0.04878049       0.00000000 </v>
   <v>       0.07317073       0.04878049       0.00000000 </v>
   <v>       0.09756098       0.04878049       0.00000000 </v>
   <v>       0.12195122       0.04878049       0.00000000 </v>
   <v>       0.14634146       0.04878049       0.00000000 </v>
   <v>       0.17073171       0.04878049       0.00000000 </v>
   <v>       0.19512195       0.04878049       0.00000000 </v>
   <v>       0.21951220       0.04878049       0.00000000 </v>
   <v>       0.24390244       0.04878049       0.00000000 </v>
   <v>       0.26829268       0.04878049       0.00000000 </v>
   <v>       0.29268293       0.04878049       0.00000000 </v>
   <v>       0.31707317       0.04878049       0.00000000 </v>
   <v>       0.34146341       0.04878049       0.00000000 </v>
   <v>       0.36585366       0.04878049       0.00000000 </v>
   <v>       0.39024390       0.04878049       0.00000000 </v>
   <v>       0.41463415       0.04878049       0.00000000 </v>
   <v>       0.43902439       0.04878049       0.00000000 </v>
   <v>       0.46341463       0.04878049       0.00000000 </v>
   <v>       0.48780488       0.04878049       0.00000000 </v>
   <v>      -0.48780488       0.04878049       0.00000000 </v>
   <v>      -0.46341463       0.04878049       0.00000000 </v>
   <v>      -0.43902439       0.04878049       0.00000000 </v>
   <v>      -0.41463415       0.04878049       0.00000000 </v>
   <v>      -0.39024390       0.04878049       0.00000000 </v>
   <v>      -0.36585366       0.04878049       0.00000000 </v>
   <v>      -0.34146341       0.04878049       0.00000000 </v>
   <v>      -0.31707317       0.04878049       0.00000000 </v>
   <v>      -0.29268293       0.04878049       0.00000000 </v>
   <v>      -0.26829268       0.04878049       0.00000000 </v>
   <v>      -0.24390244       0.04878049       0.00000000 </v>
   <v>      -0.21951220       0.04878049       0.00000000 </v>
   <v>      -0.19512195       0.04878049       0.00000000 </v>
   <v>      -0.17073171       0.04878049       0.00000000 </v>
   <v>      -0.14634146       0.04878049       0.00000000 </v>
   <v>      -0.12195122       0.04878049       0.00000000 </v>
   <v>      -0.09756098       0.04878049       0.00000000 </v>
   <v>      -0.07317073       0.04878049       0.00000000 </v>
   <v>      -0.04878049       0.04878049       0.00000000 </v>
   <v>      -0.02439024       0.04878049       0.00000000 </v>
   <v>       0.00000000       0.07317073       0.00000000 </v>
   <v>       0.02439024       0.07317073       0.00000000 </v>
   <v>       0.04878049       0.07317073       0.00000000 </v>
   <v>       0.07317073       0.07317073       0.00000000 </v>
   <v>       0.09756098       0.07317073       0.00000000 </v>
   <v>       0.12195122       0.07317073       0.00000000 </v>
   <v>       0.14634146       0.07317073       0.00000000 </v>
   <v>       0.17073171       0.07317073       0.00000000 </v>
   <v>       0.19512195       0.07317073       0.00000000 </v>
   <v>       0.21951220       0.07317073       0.00000000 </v>
   <v>       0.24390244       0.07317073       0.00000000 </v>
   <v>       0.26829268       0.07317073       0.00000000 </v>
   <v>       0.29268293       0.07317073       0.00000000 </v>
   <v>       0.31707317       0.07317073       0.00000000 </v>
   <v>       0.34146341       0.07317073       0.00000000 </v>
   <v>       0.36585366       0.07317073       0.00000000 </v>
   <v>       0.39024390       0.07317073       0.00000000 </v>
   <v>       0.41463415       0.07317073       0.00000000 </v>
   <v>       0.43902439       0.07317073       0.00000000 </v>
   <v>       0.46341463       0.07317073       0.00000000 </v>
   <v>       0.48780488       0.07317073       0.00000000 </v>
   <v>      -0.48780488       0.07317073       0.00000000 </v>
   <v>      -0.46341463       0.07317073       0.00000000 </v>
   <v>      -0.43902439       0.07317073       0.00000000 </v>
   <v>      -0.41463415       0.07317073       0.00000000 </v>
   <v>      -0.39024390       0.07317073       0.00000000 </v>
   <v>      -0.36585366       0.07317073       0.00000000 </v>
   <v>      -0.34146341       0.07317073       0.00000000 </v>
   <v>      -0.31707317       0.07317073       0.00000000 </v>
   <v>      -0.29268293       0.07317073       0.00000000 </v>
   <v>      -0.26829268       0.07317073       0.00000000 </v>
   <v>      -0.24390244       0.07317073       0.00000000 </v>
   <v>      -0.21951220       0.07317073       0.00000000 </v>
   <v>      -0.19512195       0.07317073       0.00000000 </v>
   <v>      -0.17073171       0.07317073       0.00000000 </v>
   <v>      -0.14634146       0.07317073       0.00000000 </v>
   <v>      -0.12195122       0.07317073       0.00000000 </v>
   <v>      -0.09756098       0.07317073       0.00000000 </v>
   <v>      -0.07317073       0.07317073       0.00000000 </v>
   <v>      -0.04878049       0.07317073       0.00000000 </v>
   <v>      -0.02439024       0.07317073       0.00000000 </v>
   <v>       0.00000000       0.09756098       0.00000000 </v>
   <v>       0.02439024       0.09756098       0.00000000 </v>
   <v>       0.04878049       0.09756098       0.00000000 </v>
   <v>       0.07317073       0.09756098       0.00000000 </v>
   <v>       0.09756098       0.09756098       0.00000000 </v>
   <v>       0.12195122       0.09756098       0.00000000 </v>
   <v>       0.14634146       0.09756098       0.00000000 </v>
   <v>       0.17073171       0.09756098       0.00000000 </v>
   <v>       0.19512195       0.09756098       0.00000000 </v>
   <v>       0.21951220       0.09756098       0.00000000 </v>
   <v>       0.24390244       0.09756098       0.00000000 </v>
   <v>       0.26829268       0.09756098       0.00000000 </v>
   <v>       0.29268293       0.09756098       0.00000000 </v>
   <v>       0.31707317       0.09756098       0.00000000 </v>
   <v>       0.34146341       0.09756098       0.00000000 </v>
   <v>       0.36585366       0.09756098       0.00000000 </v>
   <v>       0.39024390       0.09756098       0.00000000 </v>
   <v>       0.41463415       0.09756098       0.00000000 </v>
   <v>       0.43902439       0.09756098       0.00000000 </v>
   <v>       0.46341463       0.09756098       0.00000000 </v>
   <v>       0.48780488       0.09756098       0.00000000 </v>
   <v>      -0.48780488       0.09756098       0.00000000 </v>
   <v>      -0.46341463       0.09756098       0.00000000 </v>
   <v>      -0.43902439       0.09756098       0.00000000 </v>
   <v>      -0.41463415       0.09756098       0.00000000 </v>
   <v>      -0.39024390       0.09756098       0.00000000 </v>
   <v>      -0.36585366       0.09756098       0.00000000 </v>
   <v>      -0.34146341       0.09756098       0.00000000 </v>
   <v>      -0.31707317       0.09756098       0.00000000 </v>
   <v>      -0.29268293       0.09756098       0.00000000 </v>
   <v>      -0.26829268       0.09756098       0.00000000 </v>
   <v>      -0.24390244       0.09756098       0.00000000 </v>
   <v>      -0.21951220       0.09756098       0.00000000 </v>
   <v>      -0.19512195       0.09756098       0.00000000 </v>
   <v>      -0.17073171       0.09756098       0.00000000 </v>
   <v>      -0.14634146       0.09756098       0.00000000 </v>
   <v>      -0.12195122       0.09756098       0.00000000 </v>
   <v>      -0.09756098       0.09756098       0.00000000 </v>
   <v>      -0.07317073       0.09756098       0.00000000 </v>
   <v>      -0.04878049       0.09756098       0.00000000 </v>
   <v>      -0.02439024       0.09756098       0.00000000 </v>
   <v>       0.00000000       0.12195122       0.00000000 </v>
   <v>       0.02439024       0.12195122       0.00000000 </v>
   <v>       0.04878049       0.12195122       0.00000000 </v>
   <v>       0.07317073       0.12195122       0.00000000 </v>
   <v>       0.09756098       0.12195122       0.00000000 </v>
   <v>       0.12195122       0.12195122       0.00000000 </v>
   <v>       0.14634146       0.12195122       0.00000000 </v>
   <v>       0.17073171       0.12195122       0.00000000 </v>
   <v>       0.19512195       0.12195122       0.00000000 </v>
   <v>       0.21951220       0.12195122       0.00000000 </v>
   <v>       0.24390244       0.12195122       0.00000000 </v>
   <v>       0.26829268       0.12195122       0.00000000 </v>
   <v>       0.29268293       0.12195122       0.00000000 </v>
   <v>       0.31707317       0.12195122       0.00000000 </v>
   <v>       0.34146341       0.12195122       0.00000000 </v>
   <v>       0.36585366       0.12195122       0.00000000 </v>
   <v>       0.39024390       0.12195122       0.00000000 </v>
   <v>       0.41463415       0.12195122       0.00000000 </v>
   <v>       0.43902439       0.12195122       0.00000000 </v>
   <v>       0.46341463       0.12195122       0.00000000 </v>
   <v>       0.48780488       0.12195122       0.00000000 </v>
   <v>      -0.48780488       0.12195122       0.00000000 </v>
   <v>      -0.46341463       0.12195122       0.00000000 </v>
   <v>      -0.43902439       0.12195122       0.00000000 </v>
   <v>      -0.41463415       0.12195122       0.00000000 </v>
   <v>      -0.39024390       0.12195122       0.00000000 </v>
   <v>      -0.36585366       0.12195122       0.00000000 </v>
   <v>      -0.34146341       0.12195122       0.00000000 </v>
   <v>      -0.31707317       0.12195122       0.00000000 </v>
   <v>      -0.29268293       0.12195122       0.00000000 </v>
   <v>      -0.26829268       0.12195122       0.00000000 </v>
   <v>      -0.24390244       0.12195122       0.00000000 </v>
   <v>      -0.21951220       0.12195122       0.00000000 </v>
   <v>      -0.19512195       0.12195122       0.00000000 </v>
   <v>      -0.17073171       0.12195122       0.00000000 </v>
   <v>      -0.14634146       0.12195122       0.00000000 </v>
   <v>      -0.12195122       0.12195122       0.00000000 </v>
   <v>      -0.09756098       0.12195122       0.00000000 </v>
   <v>      -0.07317073       0.12195122       0.00000000 </v>
   <v>      -0.04878049       0.12195122       0.00000000 </v>
   <v>      -0.02439024       0.12195122       0.00000000 </v>
   <v>       0.00000000       0.14634146       0.00000000 </v>
   <v>       0.02439024       0.14634146       0.00000000 </v>
   <v>       0.04878049       0.14634146       0.00000000 </v>
   <v>       0.07317073       0.14634146       0.00000000 </v>
   <v>       0.09756098       0.14634146       0.00000000 </v>
   <v>       0.12195122       0.14634146       0.00000000 </v>
   <v>       0.14634146       0.14634146       0.00000000 </v>
   <v>       0.17073171       0.14634146       0.00000000 </v>
   <v>       0.19512195       0.14634146       0.00000000 </v>
   <v>       0.21951220       0.14634146       0.00000000 </v>
   <v>       0.24390244       0.14634146       0.00000000 </v>
   <v>       0.26829268       0.14634146       0.00000000 </v>
   <v>       0.29268293       0.14634146       0.00000000 </v>
   <v>       0.31707317       0.14634146       0.00000000 </v>
   <v>       0.34146341       0.14634146       0.00000000 </v>
   <v>       0.36585366       0.14634146       0.00000000 </v>
   <v>       0.39024390       0.14634146       0.00000000 </v>
   <v>       0.41463415       0.14634146       0.00000000 </v>
   <v>       0.43902439       0.14634146       0.00000000 </v>
   <v>       0.46341463       0.14634146       0.00000000 </v>
   <v>       0.48780488       0.14634146       0.00000000 </v>
   <v>      -0.48780488       0.14634146       0.00000000 </v>
   <v>      -0.46341463       0.14634146       0.00000000 </v>
   <v>      -0.43902439       0.14634146       0.00000000 </v>
   <v>      -0.41463415       0.14634146       0.00000000 </v>
   <v>      -0.39024390       0.14634146       0.00000000 </v>
   <v>      -0.36585366       0.14634146       0.00000000 </v>
   <v>      -0.34146341       0.14634146       0.00000000 </v>
   <v>      -0.31707317       0.14634146       0.00000000 </v>
   <v>      -0.29268293       0.14634146       0.00000000 </v>
   <v>      -0.26829268       0.14634146       0.00000000 </v>
   <v>      -0.24390244       0.14634146       0.00000000 </v>
   <v>      -0.21951220       0.14634146       0.00000000 </v>
   <v>      -0.19512195       0.14634146       0.00000000 </v>
   <v>      -0.17073171       0.14634146       0.00000000 </v>
   <v>      -0.14634146       0.14634146       0.00000000 </v>
   <v>      -0.12195122       0.14634146       0.00000000 </v>
   <v>      -0.09756098       0.14634146       0.00000000 </v>
   <v>      -0.07317073       0.14634146       0.00000000 </v>
   <v>      -0.04878049       0.14634146       0.00000000 </v>
   <v>      -0.02439024       0.14634146       0.00000000 </v>
   <v>       0.00000000       0.17073171       0.00000000 </v>
   <v>       0.02439024       0.17073171       0.00000000 </v>
   <v>       0.04878049       0.17073171       0.00000000 </v>
   <v>       0.07317073       0.17073171       0.00000000 </v>
   <v>       0.09756098       0.17073171       0.00000000 </v>
   <v>       0.12195122       0.17073171       0.00000000 </v>
   <v>       0.14634146       0.17073171       0.00000000 </v>
   <v>       0.17073171       0.17073171       0.00000000 </v>
   <v>       0.19512195       0.17073171       0.00000000 </v>
   <v>       0.21951220       0.17073171       0.00000000 </v>
   <v>       0.24390244       0.17073171       0.00000000 </v>
   <v>       0.26829268       0.17073171       0.00000000 </v>
   <v>       0.29268293       0.17073171       0.00000000 </v>
   <v>       0.31707317       0.17073171       0.00000000 </v>
   <v>       0.34146341       0.17073171       0.00000000 </v>
   <v>       0.36585366       0.17073171       0.00000000 </v>
   <v>       0.39024390       0.17073171       0.00000000 </v>
   <v>       0.41463415       0.17073171       0.00000000 </v>
   <v>       0.43902439       0.17073171       0.00000000 </v>
   <v>       0.46341463       0.17073171       0.00000000 </v>
   <v>       0.48780488       0.17073171       0.00000000 </v>
   <v>      -0.48780488       0.17073171       0.00000000 </v>
   <v>      -0.46341463       0.17073171       0.00000000 </v>
   <v>      -0.43902439       0.17073171       0.00000000 </v>
   <v>      -0.41463415       0.17073171       0.00000000 </v>
   <v>      -0.39024390       0.17073171       0.00000000 </v>
   <v>      -0.36585366       0.17073171       0.00000000 </v>
   <v>      -0.34146341       0.17073171       0.00000000 </v>
   <v>      -0.31707317       0.17073171       0.00000000 </v>
   <v>      -0.29268293       0.17073171       0.00000000 </v>
   <v>      -0.26829268       0.17073171       0.00000000 </v>
   <v>      -0.24390244       0.17073171       0.00000000 </v>
   <v>      -0.21951220       0.17073171       0.00000000 </v>
   <v>      -0.19512195       0.17073171       0.00000000 </v>
   <v>      -0.17073171       0.17073171       0.00000000 </v>
   <v>      -0.14634146       0.17073171       0.00000000 </v>
   <v>      -0.12195122       0.17073171       0.00000000 </v>
   <v>      -0.09756098       0.17073171       0.00000000 </v>
   <v>      -0.07317073       0.17073171       0.00000000 </v>
   <v>      -0.04878049       0.17073171       0.00000000 </v>
   <v>      -0.02439024       0.17073171       0.00000000 </v>
   <v>       0.00000000       0.19512195       0.00000000 </v>
   <v>       0.02439024       0.19512195       0.00000000 </v>
   <v>       0.04878049       0.19512195       0.00000000 </v>
   <v>       0.07317073       0.19512195       0.00000000 </v>
   <v>       0.09756098       0.19512195       0.00000000 </v>
   <v>       0.12195122       0.19512195       0.00000000 </v>
   <v>       0.14634146       0.19512195       0.00000000 </v>
   <v>       0.17073171       0.19512195       0.00000000 </v>
   <v>       0.19512195       0.19512195       0.00000000 </v>
   <v>       0.21951220       0.19512195       0.00000000 </v>
   <v>       0.24390244       0.19512195       0.00000000 </v>
   <v>       0.26829268       0.19512195       0.00000000 </v>
   <v>       0.29268293       0.19512195       0.00000000 </v>
   <v>       0.31707317       0.19512195       0.00000000 </v>
   <v>       0.34146341       0.19512195       0.00000000 </v>
   <v>       0.36585366       0.19512195       0.00000000 </v>
   <v>       0.39024390       0.19512195       0.00000000 </v>
   <v>       0.41463415       0.19512195       0.00000000 </v>
   <v>       0.43902439       0.19512195       0.00000000 </v>
   <v>       0.46341463       0.19512195       0.00000000 </v>
   <v>       0.48780488       0.19512195       0.00000000 </v>
   <v>      -0.48780488       0.19512195       0.00000000 </v>
   <v>      -0.46341463       0.19512195       0.00000000 </v>
   <v>      -0.43902439       0.19512195       0.00000000 </v>
   <v>      -0.41463415       0.19512195       0.00000000 </v>
   <v>      -0.39024390       0.19512195       0.00000000 </v>
   <v>      -0.36585366       0.19512195       0.00000000 </v>
   <v>      -0.34146341       0.19512195       0.00000000 </v>
   <v>      -0.31707317       0.19512195       0.00000000 </v>
   <v>      -0.29268293       0.19512195       0.00000000 </v>
   <v>      -0.26829268       0.19512195       0.00000000 </v>
   <v>      -0.24390244       0.19512195       0.00000000 </v>
   <v>      -0.21951220       0.19512195       0.00000000 </v>
   <v>      -0.19512195       0.19512195       0.00000000 </v>
   <v>      -0.17073171       0.19512195       0.00000000 </v>
   <v>      -0.14634146       0.19512195       0.00000000 </v>
   <v>      -0.12195122       0.19512195       0.00000000 </v>
   <v>      -0.09756098       0.19512195       0.00000000 </v>
   <v>      -0.07317073       0.19512195       0.00000000 </v>
   <v>      -0.04878049       0.19512195       0.00000000 </v>
   <v>      -0.02439024       0.19512195       0.00000000 </v>
   <v>       0.00000000       0.21951220       0.00000000 </v>
   <v>       0.02439024       0.21951220       0.00000000 </v>
   <v>       0.04878049       0.21951220       0.00000000 </v>
   <v>       0.07317073       0.21951220       0.00000000 </v>
   <v>       0.09756098       0.21951220       0.00000000 </v>
   <v>       0.12195122       0.21951220       0.00000000 </v>
   <v>       0.14634146       0.21951220       0.00000000 </v>
   <v>       0.17073171       0.21951220       0.00000000 </v>
   <v>       0.19512195       0.21951220       0.00000000 </v>
   <v>       0.21951220       0.21951220       0.00000000 </v>
   <v>       0.24390244       0.21951220       0.00000000 </v>
   <v>       0.26829268       0.21951220       0.00000000 </v>
   <v>       0.29268293       0.21951220       0.00000000 </v>
   <v>       0.31707317       0.21951220       0.00000000 </v>
   <v>       0.34146341       0.21951220       0.00000000 </v>
   <v>       0.36585366       0.21951220       0.00000000 </v>
   <v>       0.39024390       0.21951220       0.00000000 </v>
   <v>       0.41463415       0.21951220       0.00000000 </v>
   <v>       0.43902439       0.21951220       0.00000000 </v>
   <v>       0.46341463       0.21951220       0.00000000 </v>
   <v>       0.48780488       0.21951220       0.00000000 </v>
   <v>      -0.48780488       0.21951220       0.00000000 </v>
   <v>      -0.46341463       0.21951220       0.00000000 </v>
   <v>      -0.43902439       0.21951220       0.00000000 </v>
   <v>      -0.41463415       0.21951220       0.00000000 </v>
   <v>      -0.39024390       0.21951220       0.00000000 </v>
   <v>      -0.36585366       0.21951220       0.00000000 </v>
   <v>      -0.34146341       0.21951220       0.00000000 </v>
   <v>      -0.31707317       0.21951220       0.00000000 </v>
   <v>      -0.29268293       0.21951220       0.00000000 </v>
   <v>      -0.26829268       0.21951220       0.00000000 </v>
   <v>      -0.24390244       0.21951220       0.00000000 </v>
   <v>      -0.21951220       0.21951220       0.00000000 </v>
   <v>      -0.19512195       0.21951220       0.00000000 </v>
   <v>      -0.17073171       0.21951220       0.00000000 </v>
   <v>      -0.14634146       0.21951220       0.00000000 </v>
   <v>      -0.12195122       0.21951220       0.00000000 </v>
   <v>      -0.09756098       0.21951220       0.00000000 </v>
   <v>      -0.07317073       0.21951220       0.00000000 </v>
   <v>      -0.04878049       0.21951220       0.00000000 </v>
   <v>      -0.02439024       0.21951220       0.00000000 </v>
   <v>       0.00000000       0.24390244       0.00000000 </v>
   <v>       0.02439024       0.24390244       0.00000000 </v>
   <v>       0.04878049       0.24390244       0.00000000 </v>
   <v>       0.07317073       0.24390244       0.00000000 </v>
   <v>       0.09756098       0.24390244       0.00000000 </v>
   <v>       0.12195122       0.24390244       0.00000000 </v>
   <v>       0.14634146       0.24390244       0.00000000 </v>
   <v>       0.17073171       0.24390244       0.00000000 </v>
   <v>       0.19512195       0.24390244       0.00000000 </v>
   <v>       0.21951220       0.24390244       0.00000000 </v>
   <v>       0.24390244       0.24390244       0.00000000 </v>
   <v>       0.26829268       0.24390244       0.00000000 </v>
   <v>       0.29268293       0.24390244       0.00000000 </v>
   <v>       0.31707317       0.24390244       0.00000000 </v>
   <v>       0.34146341       0.24390244       0.00000000 </v>
   <v>       0.36585366       0.24390244       0.00000000 </v>
   <v>       0.39024390       0.24390244       0.00000000 </v>
   <v>       0.41463415       0.24390244       0.00000000 </v>
   <v>       0.43902439       0.24390244       0.00000000 </v>
   <v>       0.46341463       0.24390244       0.00000000 </v>
   <v>       0.48780488       0.24390244       0.00000000 </v>
   <v>      -0.48780488       0.24390244       0.00000000 </v>
   <v>      -0.46341463       0.24390244       0.00000000 </v>
   <v>      -0.43902439       0.24390244       0.00000000 </v>
   <v>      -0.41463415       0.24390244       0.00000000 </v>
   <v>      -0.39024390       0.24390244       0.00000000 </v>
   <v>      -0.36585366       0.24390244       0.00000000 </v>
   <v>      -0.34146341       0.24390244       0.00000000 </v>
   <v>      -0.31707317       0.24390244       0.00000000 </v>
   <v>      -0.29268293       0.24390244       0.00000000 </v>
   <v>      -0.26829268       0.24390244       0.00000000 </v>
   <v>      -0.24390244       0.24390244       0.00000000 </v>
   <v>      -0.21951220       0.24390244       0.00000000 </v>
   <v>      -0.19512195       0.24390244       0.00000000 </v>
   <v>      -0.17073171       0.24390244       0.00000000 </v>
   <v>      -0.14634146       0.24390244       0.00000000 </v>
   <v>      -0.12195122       0.24390244       0.00000000 </v>
   <v>      -0.09756098       0.24390244       0.00000000 </v>
   <v>      -0.07317073       0.24390244       0.00000000 </v>
   <v>      -0.04878049       0.24390244       0.00000000 </v>
   <v>      -0.02439024       0.24390244       0.00000000 </v>
   <v>       0.00000000       0.26829268       0.00000000 </v>
   <v>       0.02439024       0.26829268       0.00000000 </v>
   <v>       0.04878049       0.26829268       0.00000000 </v>
   <v>       0.07317073       0.26829268       0.00000000 </v>
   <v>       0.09756098       0.26829268       0.00000000 </v>
   <v>       0.12195122       0.26829268       0.00000000 </v>
   <v>       0.14634146       0.26829268       0.00000000 </v>
   <v>       0.17073171       0.26829268       0.00000000 </v>
   <v>       0.19512195       0.26829268       0.00000000 </v>
   <v>       0.21951220       0.26829268       0.00000000 </v>
   <v>       0.24390244       0.26829268       0.00000000 </v>
   <v>       0.26829268       0.26829268       0.00000000 </v>
   <v>       0.29268293       0.26829268       0.00000000 </v>
   <v>       0.31707317       0.26829268       0.00000000 </v>
   <v>       0.34146341       0.26829268       0.00000000 </v>
   <v>       0.36585366       0.26829268       0.00000000 </v>
   <v>       0.39024390       0.26829268       0.00000000 </v>
   <v>       0.41463415       0.26829268       0.00000000 </v>
   <v>       0.43902439       0.26829268       0.00000000 </v>
   <v>       0.46341463       0.26829268       0.00000000 </v>
   <v>       0.48780488       0.26829268       0.00000000 </v>
   <v>      -0.48780488       0.26829268       0.00000000 </v>
   <v>      -0.46341463       0.26829268       0.00000000 </v>
   <v>      -0.43902439       0.26829268       0.00000000 </v>
   <v>      -0.41463415       0.26829268       0.00000000 </v>
   <v>      -0.39024390       0.26829268       0.00000000 </v>
   <v>      -0.36585366       0.26829268       0.00000000 </v>
   <v>      -0.34146341       0.26829268       0.00000000 </v>
   <v>      -0.31707317       0.26829268       0.00000000 </v>
   <v>      -0.29268293       0.26829268       0.00000000 </v>
   <v>      -0.26829268       0.26829268       0.00000000 </v>
   <v>      -0.24390244       0.26829268       0.00000000 </v>
   <v>      -0.21951220       0.26829268       0.00000000 </v>
   <v>      -0.19512195       0.26829268       0.00000000 </v>
   <v>      -0.17073171       0.26829268       0.00000000 </v>
   <v>      -0.14634146       0.26829268       0.00000000 </v>
   <v>      -0.12195122       0.26829268       0.00000000 </v>
   <v>      -0.09756098       0.26829268       0.00000000 </v>
   <v>      -0.07317073       0.26829268       0.00000000 </v>
   <v>      -0.04878049       0.26829268       0.00000000 </v>
   <v>      -0.02439024       0.26829268       0.00000000 </v>
   <v>       0.00000000       0.29268293       0.00000000 </v>
   <v>       0.02439024       0.29268293       0.00000000 </v>
   <v>       0.04878049       0.29268293       0.00000000 </v>
   <v>       0.07317073       0.29268293       0.00000000 </v>
   <v>       0.09756098       0.29268293       0.00000000 </v>
   <v>       0.12195122       0.29268293       0.00000000 </v>
   <v>       0.14634146       0.29268293       0.00000000 </v>
   <v>       0.17073171       0.29268293       0.00000000 </v>
   <v>       0.19512195       0.29268293       0.00000000 </v>
   <v>       0.21951220       0.29268293       0.00000000 </v>
   <v>       0.24390244       0.29268293       0.00000000 </v>
   <v>       0.26829268       0.29268293       0.00000000 </v>
   <v>       0.29268293       0.29268293       0.00000000 </v>
   <v>       0.31707317       0.29268293       0.00000000 </v>
   <v>       0.34146341       0.29268293       0.00000000 </v>
   <v>       0.36585366       0.29268293       0.00000000 </v>
   <v>       0.39024390       0.29268293       0.00000000 </v>
   <v>       0.41463415       0.29268293       0.00000000 </v>
   <v>       0.43902439       0.29268293       0.00000000 </v>
   <v>       0.46341463       0.29268293       0.00000000 </v>
   <v>       0.48780488       0.29268293       0.00000000 </v>
   <v>      -0.48780488       0.29268293       0.00000000 </v>
   <v>      -0.46341463       0.29268293       0.00000000 </v>
   <v>      -0.43902439       0.29268293       0.00000000 </v>
   <v>      -0.41463415       0.29268293       0.00000000 </v>
   <v>      -0.39024390       0.29268293       0.00000000 </v>
   <v>      -0.36585366       0.29268293       0.00000000 </v>
   <v>      -0.34146341       0.29268293       0.00000000 </v>
   <v>      -0.31707317       0.29268293       0.00000000 </v>
   <v>      -0.29268293       0.29268293       0.00000000 </v>
   <v>      -0.26829268       0.29268293       0.00000000 </v>
   <v>      -0.24390244       0.29268293       0.00000000 </v>
   <v>      -0.21951220       0.29268293       0.00000000 </v>
   <v>      -0.19512195       0.29268293       0.00000000 </v>
   <v>      -0.17073171       0.29268293       0.00000000 </v>
   <v>      -0.14634146       0.29268293       0.00000000 </v>
   <v>      -0.12195122       0.29268293       0.00000000 </v>
   <v>      -0.09756098       0.29268293       0.00000000 </v>
   <v>      -0.07317073       0.29268293       0.00000000 </v>
   <v>      -0.04878049       0.29268293       0.00000000 </v>
   <v>      -0.02439024       0.29268293       0.00000000 </v>
   <v>       0.00000000       0.31707317       0.00000000 </v>
   <v>       0.02439024       0.31707317       0.00000000 </v>
   <v>       0.04878049       0.31707317       0.00000000 </v>
   <v>       0.07317073       0.31707317       0.00000000 </v>
   <v>       0.09756098       0.31707317       0.00000000 </v>
   <v>       0.12195122       0.31707317       0.00000000 </v>
   <v>       0.14634146       0.31707317       0.00000000 </v>
   <v>       0.17073171       0.31707317       0.00000000 </v>
   <v>       0.19512195       0.31707317       0.00000000 </v>
   <v>       0.21951220       0.31707317       0.00000000 </v>
   <v>       0.24390244       0.31707317       0.00000000 </v>
   <v>       0.26829268       0.31707317       0.00000000 </v>
   <v>       0.29268293       0.31707317       0.00000000 </v>
   <v>       0.31707317       0.31707317       0.00000000 </v>
   <v>       0.34146341       0.31707317       0.00000000 </v>
   <v>       0.36585366       0.31707317       0.00000000 </v>
   <v>       0.39024390       0.31707317       0.00000000 </v>
   <v>       0.41463415       0.31707317       0.00000000 </v>
   <v>       0.43902439       0.31707317       0.00000000 </v>
   <v>       0.46341463       0.31707317       0.00000000 </v>
   <v>       0.48780488       0.31707317       0.00000000 </v>
   <v>      -0.48780488       0.31707317       0.00000000 </v>
   <v>      -0.46341463       0.31707317       0.00000000 </v>
   <v>      -0.43902439       0.31707317       0.00000000 </v>
   <v>      -0.41463415       0.31707317       0.00000000 </v>
   <v>      -0.39024390       0.31707317       0.00000000 </v>
   <v>      -0.36585366       0.31707317       0.00000000 </v>
   <v>      -0.34146341       0.31707317       0.00000000 </v>
   <v>      -0.31707317       0.31707317       0.00000000 </v>
   <v>      -0.29268293       0.31707317       0.00000000 </v>
   <v>      -0.26829268       0.31707317       0.00000000 </v>
   <v>      -0.24390244       0.31707317       0.00000000 </v>
   <v>      -0.21951220       0.31707317       0.00000000 </v>
   <v>      -0.19512195       0.31707317       0.00000000 </v>
   <v>      -0.17073171       0.31707317       0.00000000 </v>
   <v>      -0.14634146       0.31707317       0.00000000 </v>
   <v>      -0.12195122       0.31707317       0.00000000 </v>
   <v>      -0.09756098       0.31707317       0.00000000 </v>
   <v>      -0.07317073       0.31707317       0.00000000 </v>
   <v>      -0.04878049       0.31707317       0.00000000 </v>
   <v>      -0.02439024       0.31707317       0.00000000 </v>
   <v>       0.00000000       0.34146341       0.00000000 </v>
   <v>       0.02439024       0.34146341       0.00000000 </v>
   <v>       0.04878049       0.34146341       0.00000000 </v>
   <v>       0.07317073       0.34146341       0.00000000 </v>
   <v>       0.09756098       0.34146341       0.00000000 </v>
   <v>       0.12195122       0.34146341       0.00000000 </v>
   <v>       0.14634146       0.34146341       0.00000000 </v>
   <v>       0.17073171       0.34146341       0.00000000 </v>
   <v>       0.19512195       0.34146341       0.00000000 </v>
   <v>       0.21951220       0.34146341       0.00000000 </v>
   <v>       0.24390244       0.34146341       0.00000000 </v>
   <v>       0.26829268       0.34146341       0.00000000 </v>
   <v>       0.29268293       0.34146341       0.00000000 </v>
   <v>       0.31707317       0.34146341       0.00000000 </v>
   <v>       0.34146341       0.34146341       0.00000000 </v>
   <v>       0.36585366       0.34146341       0.00000000 </v>
   <v>       0.39024390       0.34146341       0.00000000 </v>
   <v>       0.41463415       0.34146341       0.00000000 </v>
   <v>       0.43902439       0.34146341       0.00000000 </v>
   <v>       0.46341463       0.34146341       0.00000000 </v>
   <v>       0.48780488       0.34146341       0.00000000 </v>
   <v>      -0.48780488       0.34146341       0.00000000 </v>
   <v>      -0.46341463       0.34146341       0.00000000 </v>
   <v>      -0.43902439       0.34146341       0.00000000 </v>
   <v>      -0.41463415       0.34146341       0.00000000 </v>
   <v>      -0.39024390       0.34146341       0.00000000 </v>
   <v>      -0.36585366       0.34146341       0.00000000 </v>
   <v>      -0.34146341       0.34146341       0.00000000 </v>
   <v>      -0.31707317       0.34146341       0.00000000 </v>
   <v>      -0.29268293       0.34146341       0.00000000 </v>
   <v>      -0.26829268       0.34146341       0.00000000 </v>
   <v>      -0.24390244       0.34146341       0.00000000 </v>
   <v>      -0.21951220       0.34146341       0.00000000 </v>
   <v>      -0.19512195       0.34146341       0.00000000 </v>
   <v>      -0.17073171       0.34146341       0.00000000 </v>
   <v>      -0.14634146       0.34146341       0.00000000 </v>
   <v>      -0.12195122       0.34146341       0.00000000 </v>
   <v>      -0.09756098       0.34146341       0.00000000 </v>
   <v>      -0.07317073       0.34146341       0.00000000 </v>
   <v>      -0.04878049       0.34146341       0.00000000 </v>
   <v>      -0.02439024       0.34146341       0.00000000 </v>
   <v>       0.00000000       0.36585366       0.00000000 </v>
   <v>       0.02439024       0.36585366       0.00000000 </v>
   <v>       0.04878049       0.36585366       0.00000000 </v>
   <v>       0.07317073       0.36585366       0.00000000 </v>
   <v>       0.09756098       0.36585366       0.00000000 </v>
   <v>       0.12195122       0.36585366       0.00000000 </v>
   <v>       0.14634146       0.36585366       0.00000000 </v>
   <v>       0.17073171       0.36585366       0.00000000 </v>
   <v>       0.19512195       0.36585366       0.00000000 </v>
   <v>       0.21951220       0.36585366       0.00000000 </v>
   <v>       0.24390244       0.36585366       0.00000000 </v>
   <v>       0.26829268       0.36585366       0.00000000 </v>
   <v>       0.29268293       0.36585366       0.00000000 </v>
   <v>       0.31707317       0.36585366       0.00000000 </v>
   <v>       0.34146341       0.36585366       0.00000000 </v>
   <v>       0.36585366       0.36585366       0.00000000 </v>
   <v>       0.39024390       0.36585366       0.00000000 </v>
   <v>       0.41463415       0.36585366       0.00000000 </v>
   <v>       0.43902439       0.36585366       0.00000000 </v>
   <v>       0.46341463       0.36585366       0.00000000 </v>
   <v>       0.48780488       0.36585366       0.00000000 </v>
   <v>      -0.48780488       0.36585366       0.00000000 </v>
   <v>      -0.46341463       0.36585366       0.00000000 </v>
   <v>      -0.43902439       0.36585366       0.00000000 </v>
   <v>      -0.41463415       0.36585366       0.00000000 </v>
   <v>      -0.39024390       0.36585366       0.00000000 </v>
   <v>      -0.36585366       0.36585366       0.00000000 </v>
   <v>      -0.34146341       0.36585366       0.00000000 </v>
   <v>      -0.31707317       0.36585366       0.00000000 </v>
   <v>      -0.29268293       0.36585366       0.00000000 </v>
   <v>      -0.26829268       0.36585366       0.00000000 </v>
   <v>      -0.24390244       0.36585366       0.00000000 </v>
   <v>      -0.21951220       0.36585366       0.00000000 </v>
   <v>      -0.19512195       0.36585366       0.00000000 </v>
   <v>      -0.17073171       0.36585366       0.00000000 </v>
   <v>      -0.14634146       0.36585366       0.00000000 </v>
   <v>      -0.12195122       0.36585366       0.00000000 </v>
   <v>      -0.09756098       0.36585366       0.00000000 </v>
   <v>      -0.07317073       0.36585366       0.00000000 </v>
   <v>      -0.04878049       0.36585366       0.00000000 </v>
   <v>      -0.02439024       0.36585366       0.00000000 </v>
   <v>       0.00000000       0.39024390       0.00000000 </v>
   <v>       0.02439024       0.39024390       0.00000000 </v>
   <v>       0.04878049       0.39024390       0.00000000 </v>
   <v>       0.07317073       0.39024390       0.00000000 </v>
   <v>       0.09756098       0.39024390       0.00000000 </v>
   <v>       0.12195122       0.39024390       0.00000000 </v>
   <v>       0.14634146       0.39024390       0.00000000 </v>
   <v>       0.17073171       0.39024390       0.00000000 </v>
   <v>       0.19512195       0.39024390       0.00000000 </v>
   <v>       0.21951220       0.39024390       0.00000000 </v>
   <v>       0.24390244       0.39024390       0.00000000 </v>
   <v>       0.26829268       0.39024390       0.00000000 </v>
   <v>       0.29268293       0.39024390       0.00000000 </v>
   <v>       0.31707317       0.39024390       0.00000000 </v>
   <v>       0.34146341       0.39024390       0.00000000 </v>
   <v>       0.36585366       0.39024390       0.00000000 </v>
   <v>       0.39024390       0.39024390       0.00000000 </v>
   <v>       0.41463415       0.39024390       0.00000000 </v>
   <v>       0.43902439       0.39024390       0.00000000 </v>
   <v>       0.46341463       0.39024390       0.00000000 </v>
   <v>       0.48780488       0.39024390       0.00000000 </v>
   <v>      -0.48780488       0.39024390       0.00000000 </v>
   <v>      -0.46341463       0.39024390       0.00000000 </v>
   <v>      -0.43902439       0.39024390       0.00000000 </v>
   <v>      -0.41463415       0.39024390       0.00000000 </v>
   <v>      -0.39024390       0.39024390       0.00000000 </v>
   <v>      -0.36585366       0.39024390       0.00000000 </v>
   <v>      -0.34146341       0.39024390       0.00000000 </v>
   <v>      -0.31707317       0.39024390       0.00000000 </v>
   <v>      -0.29268293       0.39024390       0.00000000 </v>
   <v>      -0.26829268       0.39024390       0.00000000 </v>
   <v>      -0.24390244       0.39024390       0.00000000 </v>
   <v>      -0.21951220       0.39024390       0.00000000 </v>
   <v>      -0.19512195       0.39024390       0.00000000 </v>
   <v>      -0.17073171       0.39024390       0.00000000 </v>
   <v>      -0.14634146       0.39024390       0.00000000 </v>
   <v>      -0.12195122       0.39024390       0.00000000 </v>
   <v>      -0.09756098       0.39024390       0.00000000 </v>
   <v>      -0.07317073       0.39024390       0.00000000 </v>
   <v>      -0.04878049       0.39024390       0.00000000 </v>
   <v>      -0.02439024       0.39024390       0.00000000 </v>
   <v>       0.00000000       0.41463415       0.00000000 </v>
   <v>       0.02439024       0.41463415       0.00000000 </v>
   <v>       0.04878049       0.41463415       0.00000000 </v>
   <v>       0.07317073       0.41463415       0.00000000 </v>
   <v>       0.09756098       0.41463415       0.00000000 </v>
   <v>       0.12195122       0.41463415       0.00000000 </v>
   <v>       0.14634146       0.41463415       0.00000000 </v>
   <v>       0.17073171       0.41463415       0.00000000 </v>
   <v>       0.19512195       0.41463415       0.00000000 </v>
   <v>       0.21951220       0.41463415       0.00000000 </v>
   <v>       0.24390244       0.41463415       0.00000000 </v>
   <v>       0.26829268       0.41463415       0.00000000 </v>
   <v>       0.29268293       0.41463415       0.00000000 </v>
   <v>       0.31707317       0.41463415       0.00000000 </v>
   <v>       0.34146341       0.41463415       0.00000000 </v>
   <v>       0.36585366       0.41463415       0.00000000 </v>
   <v>       0.39024390       0.41463415       0.00000000 </v>
   <v>       0.41463415       0.41463415       0.00000000 </v>
   <v>       0.43902439       0.41463415       0.00000000 </v>
   <v>       0.46341463       0.41463415       0.00000000 </v>
   <v>       0.48780488       0.41463415       0.00000000 </v>
   <v>      -0.48780488       0.41463415       0.00000000 </v>
   <v>      -0.46341463       0.41463415       0.00000000 </v>
   <v>      -0.43902439       0.41463415       0.00000000 </v>
   <v>      -0.41463415       0.41463415       0.00000000 </v>
   <v>      -0.39024390       0.41463415       0.00000000 </v>
   <v>      -0.36585366       0.41463415       0.00000000 </v>
   <v>      -0.34146341       0.41463415       0.00000000 </v>
   <v>      -0.31707317       0.41463415       0.00000000 </v>
   <v>      -0.29268293       0.41463415       0.00000000 </v>
   <v>      -0.26829268       0.41463415       0.00000000 </v>
   <v>      -0.24390244       0.41463415       0.00000000 </v>
   <v>      -0.21951220       0.41463415       0.00000000 </v>
   <v>      -0.19512195       0.41463415       0.00000000 </v>
   <v>      -0.17073171       0.41463415       0.00000000 </v>
   <v>      -0.14634146       0.41463415       0.00000000 </v>
   <v>      -0.12195122       0.41463415       0.00000000 </v>
   <v>      -0.09756098       0.41463415       0.00000000 </v>
   <v>      -0.07317073       0.41463415       0.00000000 </v>
   <v>      -0.04878049       0.41463415       0.00000000 </v>
   <v>      -0.02439024       0.41463415       0.00000000 </v>
   <v>       0.00000000       0.43902439       0.00000000 </v>
   <v>       0.02439024       0.43902439       0.00000000 </v>
   <v>       0.04878049       0.43902439       0.00000000 </v>
   <v>       0.07317073       0.43902439       0.00000000 </v>
   <v>       0.09756098       0.43902439       0.00000000 </v>
   <v>       0.12195122       0.43902439       0.00000000 </v>
   <v>       0.14634146       0.43902439       0.00000000 </v>
   <v>       0.17073171       0.43902439       0.00000000 </v>
   <v>       0.19512195       0.43902439       0.00000000 </v>
   <v>       0.21951220       0.43902439       0.00000000 </v>
   <v>       0.24390244       0.43902439       0.00000000 </v>
   <v>       0.26829268       0.43902439       0.00000000 </v>
   <v>       0.29268293       0.43902439       0.00000000 </v>
   <v>       0.31707317       0.43902439       0.00000000 </v>
   <v>       0.34146341       0.43902439       0.00000000 </v>
   <v>       0.36585366       0.43902439       0.00000000 </v>
   <v>       0.39024390       0.43902439       0.00000000 </v>
   <v>       0.41463415       0.43902439       0.00000000 </v>
   <v>       0.43902439       0.43902439       0.00000000 </v>
   <v>       0.46341463       0.43902439       0.00000000 </v>
   <v>       0.48780488       0.43902439       0.00000000 </v>
   <v>      -0.48780488       0.43902439       0.00000000 </v>
   <v>      -0.46341463       0.43902439       0.00000000 </v>
   <v>      -0.43902439       0.43902439       0.00000000 </v>
   <v>      -0.41463415       0.43902439       0.00000000 </v>
   <v>      -0.39024390       0.43902439       0.00000000 </v>
   <v>      -0.36585366       0.43902439       0.00000000 </v>
   <v>      -0.34146341       0.43902439       0.00000000 </v>
   <v>      -0.31707317       0.43902439       0.00000000 </v>
   <v>      -0.29268293       0.43902439       0.00000000 </v>
   <v>      -0.26829268       0.43902439       0.00000000 </v>
   <v>      -0.24390244       0.43902439       0.00000000 </v>
   <v>      -0.21951220       0.43902439       0.00000000 </v>
   <v>      -0.19512195       0.43902439       0.00000000 </v>
   <v>      -0.17073171       0.43902439       0.00000000 </v>
   <v>      -0.14634146       0.43902439       0.00000000 </v>
   <v>      -0.12195122       0.43902439       0.00000000 </v>
   <v>      -0.09756098       0.43902439       0.00000000 </v>
   <v>      -0.07317073       0.43902439       0.00000000 </v>
   <v>      -0.04878049       0.43902439       0.00000000 </v>
   <v>      -0.02439024       0.43902439       0.00000000 </v>
   <v>       0.00000000       0.46341463       0.00000000 </v>
   <v>       0.02439024       0.46341463       0.00000000 </v>
   <v>       0.04878049       0.46341463       0.00000000 </v>
   <v>       0.07317073       0.46341463       0.00000000 </v>
   <v>       0.09756098       0.46341463       0.00000000 </v>
   <v>       0.12195122       0.46341463       0.00000000 </v>
   <v>       0.14634146       0.46341463       0.00000000 </v>
   <v>       0.17073171       0.46341463       0.00000000 </v>
   <v>       0.19512195       0.46341463       0.00000000 </v>
   <v>       0.21951220       0.46341463       0.00000000 </v>
   <v>       0.24390244       0.46341463       0.00000000 </v>
   <v>       0.26829268       0.46341463       0.00000000 </v>
   <v>       0.29268293       0.46341463       0.00000000 </v>
   <v>       0.31707317       0.46341463       0.00000000 </v>
   <v>       0.34146341       0.46341463       0.00000000 </v>
   <v>       0.36585366       0.46341463       0.00000000 </v>
   <v>       0.39024390       0.46341463       0.00000000 </v>
   <v>       0.41463415       0.46341463       0.00000000 </v>
   <v>       0.43902439       0.46341463       0.00000000 </v>
   <v>       0.46341463       0.46341463       0.00000000 </v>
   <v>       0.48780488       0.46341463       0.00000000 </v>
   <v>      -0.48780488       0.46341463       0.00000000 </v>
   <v>      -0.46341463       0.46341463       0.00000000 </v>
   <v>      -0.43902439       0.46341463       0.00000000 </v>
   <v>      -0.41463415       0.46341463       0.00000000 </v>
   <v>      -0.39024390       0.46341463       0.00000000 </v>
   <v>      -0.36585366       0.46341463       0.00000000 </v>
   <v>      -0.34146341       0.46341463       0.00000000 </v>
   <v>      -0.31707317       0.46341463       0.00000000 </v>
   <v>      -0.29268293       0.46341463       0.00000000 </v>
   <v>      -0.26829268       0.46341463       0.00000000 </v>
   <v>      -0.24390244       0.46341463       0.00000000 </v>
   <v>      -0.21951220       0.46341463       0.00000000 </v>
   <v>      -0.19512195       0.46341463       0.00000000 </v>
   <v>      -0.17073171       0.46341463       0.00000000 </v>
   <v>      -0.14634146       0.46341463       0.00000000 </v>
   <v>      -0.12195122       0.46341463       0.00000000 </v>
   <v>      -0.09756098       0.46341463       0.00000000 </v>
   <v>      -0.07317073       0.46341463       0.00000000 </v>
   <v>      -0.04878049       0.46341463       0.00000000 </v>
   <v>      -0.02439024       0.46341463       0.00000000 </v>
   <v>       0.00000000       0.48780488       0.00000000 </v>
   <v>       0.02439024       0.48780488       0.00000000 </v>
   <v>       0.04878049       0.48780488       0.00000000 </v>
   <v>       0.07317073       0.48780488       0.00000000 </v>
   <v>       0.09756098       0.48780488       0.00000000 </v>
   <v>       0.12195122       0.48780488       0.00000000 </v>
   <v>       0.14634146       0.48780488       0.00000000 </v>
   <v>       0.17073171       0.48780488       0.00000000 </v>
   <v>       0.19512195       0.48780488       0.00000000 </v>
   <v>       0.21951220       0.48780488       0.00000000 </v>
   <v>       0.24390244       0.48780488       0.00000000 </v>
   <v>       0.26829268       0.48780488       0.00000000 </v>
   <v>       0.29268293       0.48780488       0.00000000 </v>
   <v>       0.31707317       0.48780488       0.00000000 </v>
   <v>       0.34146341       0.48780488       0.00000000 </v>
   <v>       0.36585366       0.48780488       0.00000000 </v>
   <v>       0.39024390       0.48780488       0.00000000 </v>
   <v>       0.41463415       0.48780488       0.00000000 </v>
   <v>       0.43902439       0.48780488       0.00000000 </v>
   <v>       0.46341463       0.48780488       0.00000000 </v>
   <v>       0.48780488       0.48780488       0.00000000 </v>
   <v>      -0.48780488       0.48780488       0.00000000 </v>
   <v>      -0.46341463       0.48780488       0.00000000 </v>
   <v>      -0.43902439       0.48780488       0.00000000 </v>
   <v>      -0.41463415       0.48780488       0.00000000 </v>
   <v>      -0.39024390       0.48780488       0.00000000 </v>
   <v>      -0.36585366       0.48780488       0.00000000 </v>
   <v>      -0.34146341       0.48780488       0.00000000 </v>
   <v>      -0.31707317       0.48780488       0.00000000 </v>
   <v>      -0.29268293       0.48780488       0.00000000 </v>
   <v>      -0.26829268       0.48780488       0.00000000 </v>
   <v>      -0.24390244       0.48780488       0.00000000 </v>
   <v>      -0.21951220       0.48780488       0.00000000 </v>
   <v>      -0.19512195       0.48780488       0.00000000 </v>
   <v>      -0.17073171       0.48780488       0.00000000 </v>
   <v>      -0.14634146       0.48780488       0.00000000 </v>
   <v>      -0.12195122       0.48780488       0.00000000 </v>
   <v>      -0.09756098       0.48780488       0.00000000 </v>
   <v>      -0.07317073       0.48780488       0.00000000 </v>
   <v>      -0.04878049       0.48780488       0.00000000 </v>
   <v>      -0.02439024       0.48780488       0.00000000 </v>
  </varray>
  <varray name="weights" >
   <v>       0.00059488 </v>
   <v>       0.00118977 </v>
   <v>       0.00118977 </v>
   <v>       0.00118977 </v>
   <v>       0.00118977 </v>
   <v>       0.00118977 </v>
   <v>       0.00118977 </v>
   <v>       0.00118977 </v>
   <v>       0.00118977 </v>
   <v>       0.00118977 </v>
   <v>       0.00118977 </v>
   <v>       0.00118977 </v>
   <v>       0.00118977 </v>
   <v>       0.00118977 </v>
   <v>       0.00118977 </v>
   <v>       0.00118977 </v>
   <v>       0.00118977 </v>
   <v>       0.00118977 </v>
   <v>       0.00118977 </v>
   <v>       0.00118977 </v>
   <v>       0.00118977 </v>
   <v>       0.00118977 </v>
   <v>       0.00118977 </v>
   <v>       0.00118977 </v>
   <v>       0.00118977 </v>
   <v>       0.00118977 </v>
   <v>       0.00118977 </v>
   <v>       0.00118977 </v>
   <v>       0.00118977 </v>
   <v>       0.00118977 </v>
   <v>       0.00118977 </v>
   <v>       0.00118977 </v>
   <v>       0.00118977 </v>
   <v>       0.00118977 </v>
   <v>       0.00118977 </v>
   <v>       0.00118977 </v>
   <v>       0.00118977 </v>
   <v>       0.00118977 </v>
   <v>       0.00118977 </v>
   <v>       0.00118977 </v>
   <v>       0.00118977 </v>
   <v>       0.00118977 </v>
   <v>       0.00118977 </v>
   <v>       0.00118977 </v>
   <v>       0.00118977 </v>
   <v>       0.00118977 </v>
   <v>       0.00118977 </v>
   <v>       0.00118977 </v>
   <v>       0.00118977 </v>
   <v>       0.00118977 </v>
   <v>       0.00118977 </v>
   <v>       0.00118977 </v>
   <v>       0.00118977 </v>
   <v>       0.00118977 </v>
   <v>       0.00118977 </v>
   <v>       0.00118977 </v>
   <v>       0.00118977 </v>
   <v>       0.00118977 </v>
   <v>       0.00118977 </v>
   <v>       0.00118977 </v>
   <v>       0.00118977 </v>
   <v>       0.00118977 </v>
   <v>       0.00118977 </v>
   <v>       0.00118977 </v>
   <v>       0.00118977 </v>
   <v>       0.00118977 </v>
   <v>       0.00118977 </v>
   <v>       0.00118977 </v>
   <v>       0.00118977 </v>
   <v>       0.00118977 </v>
   <v>       0.00118977 </v>
   <v>       0.00118977 </v>
   <v>       0.00118977 </v>
   <v>       0.00118977 </v>
   <v>       0.00118977 </v>
   <v>       0.00118977 </v>
   <v>       0.00118977 </v>
   <v>       0.00118977 </v>
   <v>       0.00118977 </v>
   <v>       0.00118977 </v>
   <v>       0.00118977 </v>
   <v>       0.00118977 </v>
   <v>       0.00118977 </v>
   <v>       0.00118977 </v>
   <v>       0.00118977 </v>
   <v>       0.00118977 </v>
   <v>       0.00118977 </v>
   <v>       0.00118977 </v>
   <v>       0.00118977 </v>
   <v>       0.00118977 </v>
   <v>       0.00118977 </v>
   <v>       0.00118977 </v>
   <v>       0.00118977 </v>
   <v>       0.00118977 </v>
   <v>       0.00118977 </v>
   <v>       0.00118977 </v>
   <v>       0.00118977 </v>
   <v>       0.00118977 </v>
   <v>       0.00118977 </v>
   <v>       0.00118977 </v>
   <v>       0.00118977 </v>
   <v>       0.00118977 </v>
   <v>       0.00118977 </v>
   <v>       0.00118977 </v>
   <v>       0.00118977 </v>
   <v>       0.00118977 </v>
   <v>       0.00118977 </v>
   <v>       0.00118977 </v>
   <v>       0.00118977 </v>
   <v>       0.00118977 </v>
   <v>       0.00118977 </v>
   <v>       0.00118977 </v>
   <v>       0.00118977 </v>
   <v>       0.00118977 </v>
   <v>       0.00118977 </v>
   <v>       0.00118977 </v>
   <v>       0.00118977 </v>
   <v>       0.00118977 </v>
   <v>       0.00118977 </v>
   <v>       0.00118977 </v>
   <v>       0.00118977 </v>
   <v>       0.00118977 </v>
   <v>       0.00118977 </v>
   <v>       0.00118977 </v>
   <v>       0.00118977 </v>
   <v>       0.00118977 </v>
   <v>       0.00118977 </v>
   <v>       0.00118977 </v>
   <v>       0.00118977 </v>
   <v>       0.00118977 </v>
   <v>       0.00118977 </v>
   <v>       0.00118977 </v>
   <v>       0.00118977 </v>
   <v>       0.00118977 </v>
   <v>       0.00118977 </v>
   <v>       0.00118977 </v>
   <v>       0.00118977 </v>
   <v>       0.00118977 </v>
   <v>       0.00118977 </v>
   <v>       0.00118977 </v>
   <v>       0.00118977 </v>
   <v>       0.00118977 </v>
   <v>       0.00118977 </v>
   <v>       0.00118977 </v>
   <v>       0.00118977 </v>
   <v>       0.00118977 </v>
   <v>       0.00118977 </v>
   <v>       0.00118977 </v>
   <v>       0.00118977 </v>
   <v>       0.00118977 </v>
   <v>       0.00118977 </v>
   <v>       0.00118977 </v>
   <v>       0.00118977 </v>
   <v>       0.00118977 </v>
   <v>       0.00118977 </v>
   <v>       0.00118977 </v>
   <v>       0.00118977 </v>
   <v>       0.00118977 </v>
   <v>       0.00118977 </v>
   <v>       0.00118977 </v>
   <v>       0.00118977 </v>
   <v>       0.00118977 </v>
   <v>       0.00118977 </v>
   <v>       0.00118977 </v>
   <v>       0.00118977 </v>
   <v>       0.00118977 </v>
   <v>       0.00118977 </v>
   <v>       0.00118977 </v>
   <v>       0.00118977 </v>
   <v>       0.00118977 </v>
   <v>       0.00118977 </v>
   <v>       0.00118977 </v>
   <v>       0.00118977 </v>
   <v>       0.00118977 </v>
   <v>       0.00118977 </v>
   <v>       0.00118977 </v>
   <v>       0.00118977 </v>
   <v>       0.00118977 </v>
   <v>       0.00118977 </v>
   <v>       0.00118977 </v>
   <v>       0.00118977 </v>
   <v>       0.00118977 </v>
   <v>       0.00118977 </v>
   <v>       0.00118977 </v>
   <v>       0.00118977 </v>
   <v>       0.00118977 </v>
   <v>       0.00118977 </v>
   <v>       0.00118977 </v>
   <v>       0.00118977 </v>
   <v>       0.00118977 </v>
   <v>       0.00118977 </v>
   <v>       0.00118977 </v>
   <v>       0.00118977 </v>
   <v>       0.00118977 </v>
   <v>       0.00118977 </v>
   <v>       0.00118977 </v>
   <v>       0.00118977 </v>
   <v>       0.00118977 </v>
   <v>       0.00118977 </v>
   <v>       0.00118977 </v>
   <v>       0.00118977 </v>
   <v>       0.00118977 </v>
   <v>       0.00118977 </v>
   <v>       0.00118977 </v>
   <v>       0.00118977 </v>
   <v>       0.00118977 </v>
   <v>       0.00118977 </v>
   <v>       0.00118977 </v>
   <v>       0.00118977 </v>
   <v>       0.00118977 </v>
   <v>       0.00118977 </v>
   <v>       0.00118977 </v>
   <v>       0.00118977 </v>
   <v>       0.00118977 </v>
   <v>       0.00118977 </v>
   <v>       0.00118977 </v>
   <v>       0.00118977 </v>
   <v>       0.00118977 </v>
   <v>       0.00118977 </v>
   <v>       0.00118977 </v>
   <v>       0.00118977 </v>
   <v>       0.00118977 </v>
   <v>       0.00118977 </v>
   <v>       0.00118977 </v>
   <v>       0.00118977 </v>
   <v>       0.00118977 </v>
   <v>       0.00118977 </v>
   <v>       0.00118977 </v>
   <v>       0.00118977 </v>
   <v>       0.00118977 </v>
   <v>       0.00118977 </v>
   <v>       0.00118977 </v>
   <v>       0.00118977 </v>
   <v>       0.00118977 </v>
   <v>       0.00118977 </v>
   <v>       0.00118977 </v>
   <v>       0.00118977 </v>
   <v>       0.00118977 </v>
   <v>       0.00118977 </v>
   <v>       0.00118977 </v>
   <v>       0.00118977 </v>
   <v>       0.00118977 </v>
   <v>       0.00118977 </v>
   <v>       0.00118977 </v>
   <v>       0.00118977 </v>
   <v>       0.00118977 </v>
   <v>       0.00118977 </v>
   <v>       0.00118977 </v>
   <v>       0.00118977 </v>
   <v>       0.00118977 </v>
   <v>       0.00118977 </v>
   <v>       0.00118977 </v>
   <v>       0.00118977 </v>
   <v>       0.00118977 </v>
   <v>       0.00118977 </v>
   <v>       0.00118977 </v>
   <v>       0.00118977 </v>
   <v>       0.00118977 </v>
   <v>       0.00118977 </v>
   <v>       0.00118977 </v>
   <v>       0.00118977 </v>
   <v>       0.00118977 </v>
   <v>       0.00118977 </v>
   <v>       0.00118977 </v>
   <v>       0.00118977 </v>
   <v>       0.00118977 </v>
   <v>       0.00118977 </v>
   <v>       0.00118977 </v>
   <v>       0.00118977 </v>
   <v>       0.00118977 </v>
   <v>       0.00118977 </v>
   <v>       0.00118977 </v>
   <v>       0.00118977 </v>
   <v>       0.00118977 </v>
   <v>       0.00118977 </v>
   <v>       0.00118977 </v>
   <v>       0.00118977 </v>
   <v>       0.00118977 </v>
   <v>       0.00118977 </v>
   <v>       0.00118977 </v>
   <v>       0.00118977 </v>
   <v>       0.00118977 </v>
   <v>       0.00118977 </v>
   <v>       0.00118977 </v>
   <v>       0.00118977 </v>
   <v>       0.00118977 </v>
   <v>       0.00118977 </v>
   <v>       0.00118977 </v>
   <v>       0.00118977 </v>
   <v>       0.00118977 </v>
   <v>       0.00118977 </v>
   <v>       0.00118977 </v>
   <v>       0.00118977 </v>
   <v>       0.00118977 </v>
   <v>       0.00118977 </v>
   <v>       0.00118977 </v>
   <v>       0.00118977 </v>
   <v>       0.00118977 </v>
   <v>       0.00118977 </v>
   <v>       0.00118977 </v>
   <v>       0.00118977 </v>
   <v>       0.00118977 </v>
   <v>       0.00118977 </v>
   <v>       0.00118977 </v>
   <v>       0.00118977 </v>
   <v>       0.00118977 </v>
   <v>       0.00118977 </v>
   <v>       0.00118977 </v>
   <v>       0.00118977 </v>
   <v>       0.00118977 </v>
   <v>       0.00118977 </v>
   <v>       0.00118977 </v>
   <v>       0.00118977 </v>
   <v>       0.00118977 </v>
   <v>       0.00118977 </v>
   <v>       0.00118977 </v>
   <v>       0.00118977 </v>
   <v>       0.00118977 </v>
   <v>       0.00118977 </v>
   <v>       0.00118977 </v>
   <v>       0.00118977 </v>
   <v>       0.00118977 </v>
   <v>       0.00118977 </v>
   <v>       0.00118977 </v>
   <v>       0.00118977 </v>
   <v>       0.00118977 </v>
   <v>       0.00118977 </v>
   <v>       0.00118977 </v>
   <v>       0.00118977 </v>
   <v>       0.00118977 </v>
   <v>       0.00118977 </v>
   <v>       0.00118977 </v>
   <v>       0.00118977 </v>
   <v>       0.00118977 </v>
   <v>       0.00118977 </v>
   <v>       0.00118977 </v>
   <v>       0.00118977 </v>
   <v>       0.00118977 </v>
   <v>       0.00118977 </v>
   <v>       0.00118977 </v>
   <v>       0.00118977 </v>
   <v>       0.00118977 </v>
   <v>       0.00118977 </v>
   <v>       0.00118977 </v>
   <v>       0.00118977 </v>
   <v>       0.00118977 </v>
   <v>       0.00118977 </v>
   <v>       0.00118977 </v>
   <v>       0.00118977 </v>
   <v>       0.00118977 </v>
   <v>       0.00118977 </v>
   <v>       0.00118977 </v>
   <v>       0.00118977 </v>
   <v>       0.00118977 </v>
   <v>       0.00118977 </v>
   <v>       0.00118977 </v>
   <v>       0.00118977 </v>
   <v>       0.00118977 </v>
   <v>       0.00118977 </v>
   <v>       0.00118977 </v>
   <v>       0.00118977 </v>
   <v>       0.00118977 </v>
   <v>       0.00118977 </v>
   <v>       0.00118977 </v>
   <v>       0.00118977 </v>
   <v>       0.00118977 </v>
   <v>       0.00118977 </v>
   <v>       0.00118977 </v>
   <v>       0.00118977 </v>
   <v>       0.00118977 </v>
   <v>       0.00118977 </v>
   <v>       0.00118977 </v>
   <v>       0.00118977 </v>
   <v>       0.00118977 </v>
   <v>       0.00118977 </v>
   <v>       0.00118977 </v>
   <v>       0.00118977 </v>
   <v>       0.00118977 </v>
   <v>       0.00118977 </v>
   <v>       0.00118977 </v>
   <v>       0.00118977 </v>
   <v>       0.00118977 </v>
   <v>       0.00118977 </v>
   <v>       0.00118977 </v>
   <v>       0.00118977 </v>
   <v>       0.00118977 </v>
   <v>       0.00118977 </v>
   <v>       0.00118977 </v>
   <v>       0.00118977 </v>
   <v>       0.00118977 </v>
   <v>       0.00118977 </v>
   <v>       0.00118977 </v>
   <v>       0.00118977 </v>
   <v>       0.00118977 </v>
   <v>       0.00118977 </v>
   <v>       0.00118977 </v>
   <v>       0.00118977 </v>
   <v>       0.00118977 </v>
   <v>       0.00118977 </v>
   <v>       0.00118977 </v>
   <v>       0.00118977 </v>
   <v>       0.00118977 </v>
   <v>       0.00118977 </v>
   <v>       0.00118977 </v>
   <v>       0.00118977 </v>
   <v>       0.00118977 </v>
   <v>       0.00118977 </v>
   <v>       0.00118977 </v>
   <v>       0.00118977 </v>
   <v>       0.00118977 </v>
   <v>       0.00118977 </v>
   <v>       0.00118977 </v>
   <v>       0.00118977 </v>
   <v>       0.00118977 </v>
   <v>       0.00118977 </v>
   <v>       0.00118977 </v>
   <v>       0.00118977 </v>
   <v>       0.00118977 </v>
   <v>       0.00118977 </v>
   <v>       0.00118977 </v>
   <v>       0.00118977 </v>
   <v>       0.00118977 </v>
   <v>       0.00118977 </v>
   <v>       0.00118977 </v>
   <v>       0.00118977 </v>
   <v>       0.00118977 </v>
   <v>       0.00118977 </v>
   <v>       0.00118977 </v>
   <v>       0.00118977 </v>
   <v>       0.00118977 </v>
   <v>       0.00118977 </v>
   <v>       0.00118977 </v>
   <v>       0.00118977 </v>
   <v>       0.00118977 </v>
   <v>       0.00118977 </v>
   <v>       0.00118977 </v>
   <v>       0.00118977 </v>
   <v>       0.00118977 </v>
   <v>       0.00118977 </v>
   <v>       0.00118977 </v>
   <v>       0.00118977 </v>
   <v>       0.00118977 </v>
   <v>       0.00118977 </v>
   <v>       0.00118977 </v>
   <v>       0.00118977 </v>
   <v>       0.00118977 </v>
   <v>       0.00118977 </v>
   <v>       0.00118977 </v>
   <v>       0.00118977 </v>
   <v>       0.00118977 </v>
   <v>       0.00118977 </v>
   <v>       0.00118977 </v>
   <v>       0.00118977 </v>
   <v>       0.00118977 </v>
   <v>       0.00118977 </v>
   <v>       0.00118977 </v>
   <v>       0.00118977 </v>
   <v>       0.00118977 </v>
   <v>       0.00118977 </v>
   <v>       0.00118977 </v>
   <v>       0.00118977 </v>
   <v>       0.00118977 </v>
   <v>       0.00118977 </v>
   <v>       0.00118977 </v>
   <v>       0.00118977 </v>
   <v>       0.00118977 </v>
   <v>       0.00118977 </v>
   <v>       0.00118977 </v>
   <v>       0.00118977 </v>
   <v>       0.00118977 </v>
   <v>       0.00118977 </v>
   <v>       0.00118977 </v>
   <v>       0.00118977 </v>
   <v>       0.00118977 </v>
   <v>       0.00118977 </v>
   <v>       0.00118977 </v>
   <v>       0.00118977 </v>
   <v>       0.00118977 </v>
   <v>       0.00118977 </v>
   <v>       0.00118977 </v>
   <v>       0.00118977 </v>
   <v>       0.00118977 </v>
   <v>       0.00118977 </v>
   <v>       0.00118977 </v>
   <v>       0.00118977 </v>
   <v>       0.00118977 </v>
   <v>       0.00118977 </v>
   <v>       0.00118977 </v>
   <v>       0.00118977 </v>
   <v>       0.00118977 </v>
   <v>       0.00118977 </v>
   <v>       0.00118977 </v>
   <v>       0.00118977 </v>
   <v>       0.00118977 </v>
   <v>       0.00118977 </v>
   <v>       0.00118977 </v>
   <v>       0.00118977 </v>
   <v>       0.00118977 </v>
   <v>       0.00118977 </v>
   <v>       0.00118977 </v>
   <v>       0.00118977 </v>
   <v>       0.00118977 </v>
   <v>       0.00118977 </v>
   <v>       0.00118977 </v>
   <v>       0.00118977 </v>
   <v>       0.00118977 </v>
   <v>       0.00118977 </v>
   <v>       0.00118977 </v>
   <v>       0.00118977 </v>
   <v>       0.00118977 </v>
   <v>       0.00118977 </v>
   <v>       0.00118977 </v>
   <v>       0.00118977 </v>
   <v>       0.00118977 </v>
   <v>       0.00118977 </v>
   <v>       0.00118977 </v>
   <v>       0.00118977 </v>
   <v>       0.00118977 </v>
   <v>       0.00118977 </v>
   <v>       0.00118977 </v>
   <v>       0.00118977 </v>
   <v>       0.00118977 </v>
   <v>       0.00118977 </v>
   <v>       0.00118977 </v>
   <v>       0.00118977 </v>
   <v>       0.00118977 </v>
   <v>       0.00118977 </v>
   <v>       0.00118977 </v>
   <v>       0.00118977 </v>
   <v>       0.00118977 </v>
   <v>       0.00118977 </v>
   <v>       0.00118977 </v>
   <v>       0.00118977 </v>
   <v>       0.00118977 </v>
   <v>       0.00118977 </v>
   <v>       0.00118977 </v>
   <v>       0.00118977 </v>
   <v>       0.00118977 </v>
   <v>       0.00118977 </v>
   <v>       0.00118977 </v>
   <v>       0.00118977 </v>
   <v>       0.00118977 </v>
   <v>       0.00118977 </v>
   <v>       0.00118977 </v>
   <v>       0.00118977 </v>
   <v>       0.00118977 </v>
   <v>       0.00118977 </v>
   <v>       0.00118977 </v>
   <v>       0.00118977 </v>
   <v>       0.00118977 </v>
   <v>       0.00118977 </v>
   <v>       0.00118977 </v>
   <v>       0.00118977 </v>
   <v>       0.00118977 </v>
   <v>       0.00118977 </v>
   <v>       0.00118977 </v>
   <v>       0.00118977 </v>
   <v>       0.00118977 </v>
   <v>       0.00118977 </v>
   <v>       0.00118977 </v>
   <v>       0.00118977 </v>
   <v>       0.00118977 </v>
   <v>       0.00118977 </v>
   <v>       0.00118977 </v>
   <v>       0.00118977 </v>
   <v>       0.00118977 </v>
   <v>       0.00118977 </v>
   <v>       0.00118977 </v>
   <v>       0.00118977 </v>
   <v>       0.00118977 </v>
   <v>       0.00118977 </v>
   <v>       0.00118977 </v>
   <v>       0.00118977 </v>
   <v>       0.00118977 </v>
   <v>       0.00118977 </v>
   <v>       0.00118977 </v>
   <v>       0.00118977 </v>
   <v>       0.00118977 </v>
   <v>       0.00118977 </v>
   <v>       0.00118977 </v>
   <v>       0.00118977 </v>
   <v>       0.00118977 </v>
   <v>       0.00118977 </v>
   <v>       0.00118977 </v>
   <v>       0.00118977 </v>
   <v>       0.00118977 </v>
   <v>       0.00118977 </v>
   <v>       0.00118977 </v>
   <v>       0.00118977 </v>
   <v>       0.00118977 </v>
   <v>       0.00118977 </v>
   <v>       0.00118977 </v>
   <v>       0.00118977 </v>
   <v>       0.00118977 </v>
   <v>       0.00118977 </v>
   <v>       0.00118977 </v>
   <v>       0.00118977 </v>
   <v>       0.00118977 </v>
   <v>       0.00118977 </v>
   <v>       0.00118977 </v>
   <v>       0.00118977 </v>
   <v>       0.00118977 </v>
   <v>       0.00118977 </v>
   <v>       0.00118977 </v>
   <v>       0.00118977 </v>
   <v>       0.00118977 </v>
   <v>       0.00118977 </v>
   <v>       0.00118977 </v>
   <v>       0.00118977 </v>
   <v>       0.00118977 </v>
   <v>       0.00118977 </v>
   <v>       0.00118977 </v>
   <v>       0.00118977 </v>
   <v>       0.00118977 </v>
   <v>       0.00118977 </v>
   <v>       0.00118977 </v>
   <v>       0.00118977 </v>
   <v>       0.00118977 </v>
   <v>       0.00118977 </v>
   <v>       0.00118977 </v>
   <v>       0.00118977 </v>
   <v>       0.00118977 </v>
   <v>       0.00118977 </v>
   <v>       0.00118977 </v>
   <v>       0.00118977 </v>
   <v>       0.00118977 </v>
   <v>       0.00118977 </v>
   <v>       0.00118977 </v>
   <v>       0.00118977 </v>
   <v>       0.00118977 </v>
   <v>       0.00118977 </v>
   <v>       0.00118977 </v>
   <v>       0.00118977 </v>
   <v>       0.00118977 </v>
   <v>       0.00118977 </v>
   <v>       0.00118977 </v>
   <v>       0.00118977 </v>
   <v>       0.00118977 </v>
   <v>       0.00118977 </v>
   <v>       0.00118977 </v>
   <v>       0.00118977 </v>
   <v>       0.00118977 </v>
   <v>       0.00118977 </v>
   <v>       0.00118977 </v>
   <v>       0.00118977 </v>
   <v>       0.00118977 </v>
   <v>       0.00118977 </v>
   <v>       0.00118977 </v>
   <v>       0.00118977 </v>
   <v>       0.00118977 </v>
   <v>       0.00118977 </v>
   <v>       0.00118977 </v>
   <v>       0.00118977 </v>
   <v>       0.00118977 </v>
   <v>       0.00118977 </v>
   <v>       0.00118977 </v>
   <v>       0.00118977 </v>
   <v>       0.00118977 </v>
   <v>       0.00118977 </v>
   <v>       0.00118977 </v>
   <v>       0.00118977 </v>
   <v>       0.00118977 </v>
   <v>       0.00118977 </v>
   <v>       0.00118977 </v>
   <v>       0.00118977 </v>
   <v>       0.00118977 </v>
   <v>       0.00118977 </v>
   <v>       0.00118977 </v>
   <v>       0.00118977 </v>
   <v>       0.00118977 </v>
   <v>       0.00118977 </v>
   <v>       0.00118977 </v>
   <v>       0.00118977 </v>
   <v>       0.00118977 </v>
   <v>       0.00118977 </v>
   <v>       0.00118977 </v>
   <v>       0.00118977 </v>
   <v>       0.00118977 </v>
   <v>       0.00118977 </v>
   <v>       0.00118977 </v>
   <v>       0.00118977 </v>
   <v>       0.00118977 </v>
   <v>       0.00118977 </v>
   <v>       0.00118977 </v>
   <v>       0.00118977 </v>
   <v>       0.00118977 </v>
   <v>       0.00118977 </v>
   <v>       0.00118977 </v>
   <v>       0.00118977 </v>
   <v>       0.00118977 </v>
   <v>       0.00118977 </v>
   <v>       0.00118977 </v>
   <v>       0.00118977 </v>
   <v>       0.00118977 </v>
   <v>       0.00118977 </v>
   <v>       0.00118977 </v>
   <v>       0.00118977 </v>
   <v>       0.00118977 </v>
   <v>       0.00118977 </v>
   <v>       0.00118977 </v>
   <v>       0.00118977 </v>
   <v>       0.00118977 </v>
   <v>       0.00118977 </v>
   <v>       0.00118977 </v>
   <v>       0.00118977 </v>
   <v>       0.00118977 </v>
   <v>       0.00118977 </v>
   <v>       0.00118977 </v>
   <v>       0.00118977 </v>
   <v>       0.00118977 </v>
   <v>       0.00118977 </v>
   <v>       0.00118977 </v>
   <v>       0.00118977 </v>
   <v>       0.00118977 </v>
   <v>       0.00118977 </v>
   <v>       0.00118977 </v>
   <v>       0.00118977 </v>
   <v>       0.00118977 </v>
   <v>       0.00118977 </v>
   <v>       0.00118977 </v>
   <v>       0.00118977 </v>
   <v>       0.00118977 </v>
   <v>       0.00118977 </v>
   <v>       0.00118977 </v>
   <v>       0.00118977 </v>
   <v>       0.00118977 </v>
   <v>       0.00118977 </v>
   <v>       0.00118977 </v>
   <v>       0.00118977 </v>
   <v>       0.00118977 </v>
   <v>       0.00118977 </v>
   <v>       0.00118977 </v>
   <v>       0.00118977 </v>
   <v>       0.00118977 </v>
   <v>       0.00118977 </v>
   <v>       0.00118977 </v>
   <v>       0.00118977 </v>
   <v>       0.00118977 </v>
   <v>       0.00118977 </v>
   <v>       0.00118977 </v>
   <v>       0.00118977 </v>
   <v>       0.00118977 </v>
   <v>       0.00118977 </v>
   <v>       0.00118977 </v>
   <v>       0.00118977 </v>
   <v>       0.00118977 </v>
   <v>       0.00118977 </v>
   <v>       0.00118977 </v>
   <v>       0.00118977 </v>
   <v>       0.00118977 </v>
   <v>       0.00118977 </v>
   <v>       0.00118977 </v>
   <v>       0.00118977 </v>
   <v>       0.00118977 </v>
   <v>       0.00118977 </v>
   <v>       0.00118977 </v>
   <v>       0.00118977 </v>
   <v>       0.00118977 </v>
   <v>       0.00118977 </v>
   <v>       0.00118977 </v>
   <v>       0.00118977 </v>
   <v>       0.00118977 </v>
   <v>       0.00118977 </v>
   <v>       0.00118977 </v>
   <v>       0.00118977 </v>
   <v>       0.00118977 </v>
   <v>       0.00118977 </v>
   <v>       0.00118977 </v>
   <v>       0.00118977 </v>
   <v>       0.00118977 </v>
   <v>       0.00118977 </v>
   <v>       0.00118977 </v>
   <v>       0.00118977 </v>
   <v>       0.00118977 </v>
   <v>       0.00118977 </v>
   <v>       0.00118977 </v>
   <v>       0.00118977 </v>
   <v>       0.00118977 </v>
   <v>       0.00118977 </v>
   <v>       0.00118977 </v>
   <v>       0.00118977 </v>
   <v>       0.00118977 </v>
   <v>       0.00118977 </v>
   <v>       0.00118977 </v>
   <v>       0.00118977 </v>
   <v>       0.00118977 </v>
   <v>       0.00118977 </v>
   <v>       0.00118977 </v>
   <v>       0.00118977 </v>
   <v>       0.00118977 </v>
   <v>       0.00118977 </v>
   <v>       0.00118977 </v>
   <v>       0.00118977 </v>
   <v>       0.00118977 </v>
   <v>       0.00118977 </v>
   <v>       0.00118977 </v>
   <v>       0.00118977 </v>
   <v>       0.00118977 </v>
   <v>       0.00118977 </v>
   <v>       0.00118977 </v>
   <v>       0.00118977 </v>
   <v>       0.00118977 </v>
   <v>       0.00118977 </v>
   <v>       0.00118977 </v>
   <v>       0.00118977 </v>
   <v>       0.00118977 </v>
   <v>       0.00118977 </v>
   <v>       0.00118977 </v>
   <v>       0.00118977 </v>
   <v>       0.00118977 </v>
   <v>       0.00118977 </v>
   <v>       0.00118977 </v>
   <v>       0.00118977 </v>
   <v>       0.00118977 </v>
   <v>       0.00118977 </v>
   <v>       0.00118977 </v>
   <v>       0.00118977 </v>
   <v>       0.00118977 </v>
   <v>       0.00118977 </v>
   <v>       0.00118977 </v>
   <v>       0.00118977 </v>
   <v>       0.00118977 </v>
   <v>       0.00118977 </v>
   <v>       0.00118977 </v>
   <v>       0.00118977 </v>
   <v>       0.00118977 </v>
   <v>       0.00118977 </v>
   <v>       0.00118977 </v>
   <v>       0.00118977 </v>
   <v>       0.00118977 </v>
   <v>       0.00118977 </v>
   <v>       0.00118977 </v>
   <v>       0.00118977 </v>
   <v>       0.00118977 </v>
   <v>       0.00118977 </v>
   <v>       0.00118977 </v>
   <v>       0.00118977 </v>
   <v>       0.00118977 </v>
   <v>       0.00118977 </v>
   <v>       0.00118977 </v>
   <v>       0.00118977 </v>
  </varray>
  <varray name="tetrahedronlist"  type="int" >
   <v type="int" >        2        2       22       22       23 </v>
   <v type="int" >        2        1        2       22       22 </v>
   <v type="int" >        2        1        1        2       22 </v>
   <v type="int" >        2        2       22       23       23 </v>
   <v type="int" >        2        2        2       22       23 </v>
   <v type="int" >        2        1        2        2       22 </v>
   <v type="int" >        2        3       23       23       24 </v>
   <v type="int" >        2        2        3       23       23 </v>
   <v type="int" >        2        2        2        3       23 </v>
   <v type="int" >        2        3       23       24       24 </v>
   <v type="int" >        2        3        3       23       24 </v>
   <v type="int" >        2        2        3        3       23 </v>
[...]
       </set>
       <set comment="band 6">
        <r>  0.0040  0.0074  0.0000  0.0041  0.0000  0.0000  0.0000  0.0000  0.0000 </r>
        <r>  0.0040  0.0074  0.0000  0.0041  0.0000  0.0000  0.0000  0.0000  0.0000 </r>
       </set>
       <set comment="band 7">
        <r>  0.0000  0.0000  0.0189  0.0000  0.0000  0.0000  0.0000  0.0000  0.0000 </r>
        <r>  0.0000  0.0000  0.0189  0.0000  0.0000  0.0000  0.0000  0.0000  0.0000 </r>
       </set>
       <set comment="band 8">
        <r>  0.0000  0.0001  0.0000  0.0001  0.0000  0.0000  0.0000  0.0000  0.0000 </r>
        <r>  0.0000  0.0001  0.0000  0.0001  0.0000  0.0000  0.0000  0.0000  0.0000 </r>
       </set>
      </set>
      <set comment="kpoint 832">
       <set comment="band 1">
        <r>  0.2643  0.0609  0.0000  0.0211  0.0000  0.0000  0.0000  0.0000  0.0000 </r>
        <r>  0.2643  0.0609  0.0000  0.0211  0.0000  0.0000  0.0000  0.0000  0.0000 </r>
       </set>
       <set comment="band 2">
        <r>  0.1879  0.1163  0.0000  0.0758  0.0000  0.0000  0.0000  0.0000  0.0000 </r>
        <r>  0.1879  0.1163  0.0000  0.0758  0.0000  0.0000  0.0000  0.0000  0.0000 </r>
       </set>
       <set comment="band 3">
        <r>  0.0247  0.1171  0.0000  0.2066  0.0000  0.0000  0.0000  0.0000  0.0000 </r>
        <r>  0.0247  0.1171  0.0000  0.2066  0.0000  0.0000  0.0000  0.0000  0.0000 </r>
       </set>
       <set comment="band 4">
        <r>  0.0000  0.0000  0.2410  0.0000  0.0000  0.0000  0.0000  0.0000  0.0000 </r>
        <r>  0.0000  0.0000  0.2410  0.0000  0.0000  0.0000  0.0000  0.0000  0.0000 </r>
       </set>
       <set comment="band 5">
        <r>  0.0000  0.0000  0.2778  0.0000  0.0000  0.0000  0.0000  0.0000  0.0000 </r>
        <r>  0.0000  0.0000  0.2778  0.0000  0.0000  0.0000  0.0000  0.0000  0.0000 </r>
       </set>
       <set comment="band 6">
        <r>  0.0040  0.0080  0.0000  0.0033  0.0000  0.0000  0.0000  0.0000  0.0000 </r>
        <r>  0.0040  0.0080  0.0000  0.0033  0.0000  0.0000  0.0000  0.0000  0.0000 </r>
       </set>
       <set comment="band 7">
        <r>  0.0000  0.0000  0.0187  0.0000  0.0000  0.0000  0.0000  0.0000  0.0000 </r>
        <r>  0.0000  0.0000  0.0187  0.0000  0.0000  0.0000  0.0000  0.0000  0.0000 </r>
       </set>
       <set comment="band 8">
        <r>  0.0000  0.0001  0.0000  0.0000  0.0000  0.0000  0.0000  0.0000  0.0000 </r>
        <r>  0.0000  0.0001  0.0000  0.0000  0.0000  0.0000  0.0000  0.0000  0.0000 </r>
       </set>
      </set>
      <set comment="kpoint 833">
       <set comment="band 1">
        <r>  0.2643  0.0647  0.0000  0.0174  0.0000  0.0000  0.0000  0.0000  0.0000 </r>
        <r>  0.2643  0.0647  0.0000  0.0174  0.0000  0.0000  0.0000  0.0000  0.0000 </r>
       </set>
       <set comment="band 2">
        <r>  0.1818  0.1623  0.0000  0.0324  0.0000  0.0000  0.0000  0.0000  0.0000 </r>
        <r>  0.1818  0.1623  0.0000  0.0324  0.0000  0.0000  0.0000  0.0000  0.0000 </r>
       </set>
       <set comment="band 3">
        <r>  0.0301  0.0611  0.0000  0.2610  0.0000  0.0000  0.0000  0.0000  0.0000 </r>
        <r>  0.0301  0.0611  0.0000  0.2610  0.0000  0.0000  0.0000  0.0000  0.0000 </r>
       </set>
       <set comment="band 4">
        <r>  0.0000  0.0000  0.2412  0.0000  0.0000  0.0000  0.0000  0.0000  0.0000 </r>
        <r>  0.0000  0.0000  0.2412  0.0000  0.0000  0.0000  0.0000  0.0000  0.0000 </r>
       </set>
       <set comment="band 5">
        <r>  0.0000  0.0000  0.2763  0.0000  0.0000  0.0000  0.0000  0.0000  0.0000 </r>
        <r>  0.0000  0.0000  0.2763  0.0000  0.0000  0.0000  0.0000  0.0000  0.0000 </r>
       </set>
       <set comment="band 6">
        <r>  0.0040  0.0088  0.0000  0.0027  0.0000  0.0000  0.0000  0.0000  0.0000 </r>
        <r>  0.0040  0.0088  0.0000  0.0027  0.0000  0.0000  0.0000  0.0000  0.0000 </r>
       </set>
       <set comment="band 7">
        <r>  0.0000  0.0000  0.0189  0.0000  0.0000  0.0000  0.0000  0.0000  0.0000 </r>
        <r>  0.0000  0.0000  0.0189  0.0000  0.0000  0.0000  0.0000  0.0000  0.0000 </r>
       </set>
       <set comment="band 8">
        <r>  0.0000  0.0001  0.0000  0.0000  0.0000  0.0000  0.0000  0.0000  0.0000 </r>
        <r>  0.0000  0.0001  0.0000  0.0000  0.0000  0.0000  0.0000  0.0000  0.0000 </r>
       </set>
      </set>
      <set comment="kpoint 834">
       <set comment="band 1">
        <r>  0.2642  0.0684  0.0000  0.0140  0.0000  0.0000  0.0000  0.0000  0.0000 </r>
        <r>  0.2642  0.0684  0.0000  0.0140  0.0000  0.0000  0.0000  0.0000  0.0000 </r>
       </set>
       <set comment="band 2">
        <r>  0.1735  0.1823  0.0000  0.0143  0.0000  0.0000  0.0000  0.0000  0.0000 </r>
        <r>  0.1735  0.1823  0.0000  0.0143  0.0000  0.0000  0.0000  0.0000  0.0000 </r>
       </set>
       <set comment="band 3">
        <r>  0.0362  0.0319  0.0000  0.2912  0.0000  0.0000  0.0000  0.0000  0.0000 </r>
        <r>  0.0362  0.0319  0.0000  0.2912  0.0000  0.0000  0.0000  0.0000  0.0000 </r>
       </set>
       <set comment="band 4">
        <r>  0.0000  0.0000  0.2418  0.0000  0.0000  0.0000  0.0000  0.0000  0.0000 </r>
        <r>  0.0000  0.0000  0.2418  0.0000  0.0000  0.0000  0.0000  0.0000  0.0000 </r>
       </set>
       <set comment="band 5">
        <r>  0.0000  0.0000  0.2721  0.0000  0.0000  0.0000  0.0000  0.0000  0.0000 </r>
        <r>  0.0000  0.0000  0.2721  0.0000  0.0000  0.0000  0.0000  0.0000  0.0000 </r>
       </set>
       <set comment="band 6">
        <r>  0.0038  0.0099  0.0000  0.0023  0.0000  0.0000  0.0000  0.0000  0.0000 </r>
        <r>  0.0038  0.0099  0.0000  0.0023  0.0000  0.0000  0.0000  0.0000  0.0000 </r>
       </set>
       <set comment="band 7">
        <r>  0.0000  0.0000  0.0192  0.0000  0.0000  0.0000  0.0000  0.0000  0.0000 </r>
        <r>  0.0000  0.0000  0.0192  0.0000  0.0000  0.0000  0.0000  0.0000  0.0000 </r>
       </set>
       <set comment="band 8">
        <r>  0.0000  0.0002  0.0000  0.0001  0.0000  0.0000  0.0000  0.0000  0.0000 </r>
        <r>  0.0000  0.0002  0.0000  0.0001  0.0000  0.0000  0.0000  0.0000  0.0000 </r>
       </set>
      </set>
      <set comment="kpoint 835">
       <set comment="band 1">
        <r>  0.2643  0.0719  0.0000  0.0109  0.0000  0.0000  0.0000  0.0000  0.0000 </r>
        <r>  0.2643  0.0719  0.0000  0.0109  0.0000  0.0000  0.0000  0.0000  0.0000 </r>
       </set>
       <set comment="band 2">
        <r>  0.1694  0.1874  0.0000  0.0078  0.0000  0.0000  0.0000  0.0000  0.0000 </r>
        <r>  0.1694  0.1874  0.0000  0.0078  0.0000  0.0000  0.0000  0.0000  0.0000 </r>
       </set>
       <set comment="band 3">
        <r>  0.0366  0.0184  0.0000  0.3110  0.0000  0.0000  0.0000  0.0000  0.0000 </r>
        <r>  0.0366  0.0184  0.0000  0.3110  0.0000  0.0000  0.0000  0.0000  0.0000 </r>
       </set>
       <set comment="band 4">
        <r>  0.0000  0.0000  0.2429  0.0000  0.0000  0.0000  0.0000  0.0000  0.0000 </r>
        <r>  0.0000  0.0000  0.2429  0.0000  0.0000  0.0000  0.0000  0.0000  0.0000 </r>
       </set>
       <set comment="band 5">
        <r>  0.0000  0.0000  0.2659  0.0000  0.0000  0.0000  0.0000  0.0000  0.0000 </r>
        <r>  0.0000  0.0000  0.2659  0.0000  0.0000  0.0000  0.0000  0.0000  0.0000 </r>
       </set>
       <set comment="band 6">
        <r>  0.0034  0.0121  0.0000  0.0022  0.0000  0.0000  0.0000  0.0000  0.0000 </r>
        <r>  0.0034  0.0121  0.0000  0.0022  0.0000  0.0000  0.0000  0.0000  0.0000 </r>
       </set>
       <set comment="band 7">
        <r>  0.0000  0.0000  0.0197  0.0000  0.0000  0.0000  0.0000  0.0000  0.0000 </r>
        <r>  0.0000  0.0000  0.0197  0.0000  0.0000  0.0000  0.0000  0.0000  0.0000 </r>
       </set>
       <set comment="band 8">
        <r>  0.1125  0.0432  0.0000  0.0820  0.0000  0.0000  0.0000  0.0000  0.0000 </r>
        <r>  0.1125  0.0432  0.0000  0.0820  0.0000  0.0000  0.0000  0.0000  0.0000 </r>
       </set>
      </set>
      <set comment="kpoint 836">
       <set comment="band 1">
        <r>  0.2645  0.0752  0.0000  0.0082  0.0000  0.0000  0.0000  0.0000  0.0000 </r>
        <r>  0.2645  0.0752  0.0000  0.0082  0.0000  0.0000  0.0000  0.0000  0.0000 </r>
       </set>
       <set comment="band 2">
        <r>  0.1682  0.1868  0.0000  0.0048  0.0000  0.0000  0.0000  0.0000  0.0000 </r>
        <r>  0.1682  0.1868  0.0000  0.0048  0.0000  0.0000  0.0000  0.0000  0.0000 </r>
       </set>
       <set comment="band 3">
        <r>  0.0327  0.0114  0.0000  0.3280  0.0000  0.0000  0.0000  0.0000  0.0000 </r>
        <r>  0.0327  0.0114  0.0000  0.3280  0.0000  0.0000  0.0000  0.0000  0.0000 </r>
       </set>
       <set comment="band 4">
        <r>  0.0000  0.0000  0.2443  0.0000  0.0000  0.0000  0.0000  0.0000  0.0000 </r>
        <r>  0.0000  0.0000  0.2443  0.0000  0.0000  0.0000  0.0000  0.0000  0.0000 </r>
       </set>
       <set comment="band 5">
        <r>  0.0000  0.0000  0.2585  0.0000  0.0000  0.0000  0.0000  0.0000  0.0000 </r>
        <r>  0.0000  0.0000  0.2585  0.0000  0.0000  0.0000  0.0000  0.0000  0.0000 </r>
       </set>
       <set comment="band 6">
        <r>  0.0092  0.0233  0.0000  0.0072  0.0000  0.0000  0.0000  0.0000  0.0000 </r>
        <r>  0.0092  0.0233  0.0000  0.0072  0.0000  0.0000  0.0000  0.0000  0.0000 </r>
       </set>
       <set comment="band 7">
        <r>  0.1266  0.0309  0.0000  0.0625  0.0000  0.0000  0.0000  0.0000  0.0000 </r>
        <r>  0.1266  0.0309  0.0000  0.0625  0.0000  0.0000  0.0000  0.0000  0.0000 </r>
       </set>
       <set comment="band 8">
        <r>  0.0000  0.0000  0.0199  0.0000  0.0000  0.0000  0.0000  0.0000  0.0000 </r>
        <r>  0.0000  0.0000  0.0199  0.0000  0.0000  0.0000  0.0000  0.0000  0.0000 </r>
       </set>
      </set>
      <set comment="kpoint 837">
       <set comment="band 1">
        <r>  0.2652  0.0780  0.0000  0.0058  0.0000  0.0000  0.0000  0.0000  0.0000 </r>
        <r>  0.2652  0.0780  0.0000  0.0058  0.0000  0.0000  0.0000  0.0000  0.0000 </r>
       </set>
       <set comment="band 2">
        <r>  0.1683  0.1846  0.0000  0.0031  0.0000  0.0000  0.0000  0.0000  0.0000 </r>
        <r>  0.1683  0.1846  0.0000  0.0031  0.0000  0.0000  0.0000  0.0000  0.0000 </r>
       </set>
       <set comment="band 3">
        <r>  0.0263  0.0072  0.0000  0.3441  0.0000  0.0000  0.0000  0.0000  0.0000 </r>
        <r>  0.0263  0.0072  0.0000  0.3441  0.0000  0.0000  0.0000  0.0000  0.0000 </r>
       </set>
       <set comment="band 4">
        <r>  0.0000  0.0000  0.2461  0.0000  0.0000  0.0000  0.0000  0.0000  0.0000 </r>
        <r>  0.0000  0.0000  0.2461  0.0000  0.0000  0.0000  0.0000  0.0000  0.0000 </r>
       </set>
       <set comment="band 5">
        <r>  0.0000  0.0000  0.2509  0.0000  0.0000  0.0000  0.0000  0.0000  0.0000 </r>
        <r>  0.0000  0.0000  0.2509  0.0000  0.0000  0.0000  0.0000  0.0000  0.0000 </r>
       </set>
       <set comment="band 6">
        <r>  0.1355  0.0494  0.0000  0.0495  0.0000  0.0000  0.0000  0.0000  0.0000 </r>
        <r>  0.1355  0.0494  0.0000  0.0495  0.0000  0.0000  0.0000  0.0000  0.0000 </r>
       </set>
       <set comment="band 7">
        <r>  0.0145  0.0036  0.0000  0.0030  0.0000  0.0000  0.0000  0.0000  0.0000 </r>
        <r>  0.0145  0.0036  0.0000  0.0030  0.0000  0.0000  0.0000  0.0000  0.0000 </r>
       </set>
       <set comment="band 8">
        <r>  0.0000  0.0000  0.0200  0.0000  0.0000  0.0000  0.0000  0.0000  0.0000 </r>
        <r>  0.0000  0.0000  0.0200  0.0000  0.0000  0.0000  0.0000  0.0000  0.0000 </r>
       </set>
      </set>
      <set comment="kpoint 838">
       <set comment="band 1">
        <r>  0.2665  0.0800  0.0000  0.0039  0.0000  0.0000  0.0000  0.0000  0.0000 </r>
        <r>  0.2665  0.0800  0.0000  0.0039  0.0000  0.0000  0.0000  0.0000  0.0000 </r>
       </set>
       <set comment="band 2">
        <r>  0.1683  0.1823  0.0000  0.0018  0.0000  0.0000  0.0000  0.0000  0.0000 </r>
        <r>  0.1683  0.1823  0.0000  0.0018  0.0000  0.0000  0.0000  0.0000  0.0000 </r>
       </set>
       <set comment="band 3">
        <r>  0.0189  0.0043  0.0000  0.3594  0.0000  0.0000  0.0000  0.0000  0.0000 </r>
        <r>  0.0189  0.0043  0.0000  0.3594  0.0000  0.0000  0.0000  0.0000  0.0000 </r>
       </set>
       <set comment="band 4">
        <r>  0.0000  0.0000  0.2481  0.0000  0.0000  0.0000  0.0000  0.0000  0.0000 </r>
        <r>  0.0000  0.0000  0.2481  0.0000  0.0000  0.0000  0.0000  0.0000  0.0000 </r>
       </set>
       <set comment="band 5">
        <r>  0.0000  0.0000  0.2434  0.0000  0.0000  0.0000  0.0000  0.0000  0.0000 </r>
        <r>  0.0000  0.0000  0.2434  0.0000  0.0000  0.0000  0.0000  0.0000  0.0000 </r>
       </set>
       <set comment="band 6">
        <r>  0.1552  0.0451  0.0000  0.0353  0.0000  0.0000  0.0000  0.0000  0.0000 </r>
        <r>  0.1552  0.0451  0.0000  0.0353  0.0000  0.0000  0.0000  0.0000  0.0000 </r>
       </set>
       <set comment="band 7">
        <r>  0.0074  0.0074  0.0000  0.0009  0.0000  0.0000  0.0000  0.0000  0.0000 </r>
        <r>  0.0074  0.0074  0.0000  0.0009  0.0000  0.0000  0.0000  0.0000  0.0000 </r>
       </set>
       <set comment="band 8">
        <r>  0.0000  0.0000  0.0201  0.0000  0.0000  0.0000  0.0000  0.0000  0.0000 </r>
        <r>  0.0000  0.0000  0.0201  0.0000  0.0000  0.0000  0.0000  0.0000  0.0000 </r>
       </set>
      </set>
      <set comment="kpoint 839">
       <set comment="band 1">
        <r>  0.2691  0.0809  0.0000  0.0023  0.0000  0.0000  0.0000  0.0000  0.0000 </r>
        <r>  0.2691  0.0809  0.0000  0.0023  0.0000  0.0000  0.0000  0.0000  0.0000 </r>
       </set>
       <set comment="band 2">
        <r>  0.1672  0.1808  0.0000  0.0009  0.0000  0.0000  0.0000  0.0000  0.0000 </r>
        <r>  0.1672  0.1808  0.0000  0.0009  0.0000  0.0000  0.0000  0.0000  0.0000 </r>
       </set>
       <set comment="band 3">
        <r>  0.0117  0.0024  0.0000  0.3730  0.0000  0.0000  0.0000  0.0000  0.0000 </r>
        <r>  0.0117  0.0024  0.0000  0.3730  0.0000  0.0000  0.0000  0.0000  0.0000 </r>
       </set>
       <set comment="band 4">
        <r>  0.0000  0.0000  0.2503  0.0000  0.0000  0.0000  0.0000  0.0000  0.0000 </r>
        <r>  0.0000  0.0000  0.2503  0.0000  0.0000  0.0000  0.0000  0.0000  0.0000 </r>
       </set>
       <set comment="band 5">
        <r>  0.0000  0.0000  0.2368  0.0000  0.0000  0.0000  0.0000  0.0000  0.0000 </r>
        <r>  0.0000  0.0000  0.2368  0.0000  0.0000  0.0000  0.0000  0.0000  0.0000 </r>
       </set>
       <set comment="band 6">
        <r>  0.1676  0.0431  0.0000  0.0213  0.0000  0.0000  0.0000  0.0000  0.0000 </r>
        <r>  0.1676  0.0431  0.0000  0.0213  0.0000  0.0000  0.0000  0.0000  0.0000 </r>
       </set>
       <set comment="band 7">
        <r>  0.0059  0.0091  0.0000  0.0005  0.0000  0.0000  0.0000  0.0000  0.0000 </r>
        <r>  0.0059  0.0091  0.0000  0.0005  0.0000  0.0000  0.0000  0.0000  0.0000 </r>
       </set>
       <set comment="band 8">
        <r>  0.0000  0.0000  0.0203  0.0000  0.0000  0.0000  0.0000  0.0000  0.0000 </r>
        <r>  0.0000  0.0000  0.0203  0.0000  0.0000  0.0000  0.0000  0.0000  0.0000 </r>
       </set>
      </set>
      <set comment="kpoint 840">
       <set comment="band 1">
        <r>  0.2738  0.0798  0.0000  0.0011  0.0000  0.0000  0.0000  0.0000  0.0000 </r>
        <r>  0.2738  0.0798  0.0000  0.0011  0.0000  0.0000  0.0000  0.0000  0.0000 </r>
       </set>
       <set comment="band 2">
        <r>  0.1637  0.1813  0.0000  0.0003  0.0000  0.0000  0.0000  0.0000  0.0000 </r>
        <r>  0.1637  0.1813  0.0000  0.0003  0.0000  0.0000  0.0000  0.0000  0.0000 </r>
       </set>
       <set comment="band 3">
        <r>  0.0056  0.0010  0.0000  0.3840  0.0000  0.0000  0.0000  0.0000  0.0000 </r>
        <r>  0.0056  0.0010  0.0000  0.3840  0.0000  0.0000  0.0000  0.0000  0.0000 </r>
       </set>
       <set comment="band 4">
        <r>  0.0000  0.0000  0.2525  0.0000  0.0000  0.0000  0.0000  0.0000  0.0000 </r>
        <r>  0.0000  0.0000  0.2525  0.0000  0.0000  0.0000  0.0000  0.0000  0.0000 </r>
       </set>
       <set comment="band 5">
        <r>  0.0000  0.0000  0.2313  0.0000  0.0000  0.0000  0.0000  0.0000  0.0000 </r>
        <r>  0.0000  0.0000  0.2313  0.0000  0.0000  0.0000  0.0000  0.0000  0.0000 </r>
       </set>
       <set comment="band 6">
        <r>  0.1768  0.0419  0.0000  0.0099  0.0000  0.0000  0.0000  0.0000  0.0000 </r>
        <r>  0.1768  0.0419  0.0000  0.0099  0.0000  0.0000  0.0000  0.0000  0.0000 </r>
       </set>
       <set comment="band 7">
        <r>  0.0051  0.0105  0.0000  0.0002  0.0000  0.0000  0.0000  0.0000  0.0000 </r>
        <r>  0.0051  0.0105  0.0000  0.0002  0.0000  0.0000  0.0000  0.0000  0.0000 </r>
       </set>
       <set comment="band 8">
        <r>  0.0000  0.0000  0.0208  0.0000  0.0000  0.0000  0.0000  0.0000  0.0000 </r>
        <r>  0.0000  0.0000  0.0208  0.0000  0.0000  0.0000  0.0000  0.0000  0.0000 </r>
       </set>
      </set>
      <set comment="kpoint 841">
       <set comment="band 1">
        <r>  0.2820  0.0758  0.0000  0.0003  0.0000  0.0000  0.0000  0.0000  0.0000 </r>
        <r>  0.2820  0.0758  0.0000  0.0003  0.0000  0.0000  0.0000  0.0000  0.0000 </r>
       </set>
       <set comment="band 2">
        <r>  0.1564  0.1849  0.0000  0.0001  0.0000  0.0000  0.0000  0.0000  0.0000 </r>
        <r>  0.1564  0.1849  0.0000  0.0001  0.0000  0.0000  0.0000  0.0000  0.0000 </r>
       </set>
       <set comment="band 3">
        <r>  0.0015  0.0003  0.0000  0.3912  0.0000  0.0000  0.0000  0.0000  0.0000 </r>
        <r>  0.0015  0.0003  0.0000  0.3912  0.0000  0.0000  0.0000  0.0000  0.0000 </r>
       </set>
       <set comment="band 4">
        <r>  0.0000  0.0000  0.2543  0.0000  0.0000  0.0000  0.0000  0.0000  0.0000 </r>
        <r>  0.0000  0.0000  0.2543  0.0000  0.0000  0.0000  0.0000  0.0000  0.0000 </r>
       </set>
       <set comment="band 5">
        <r>  0.0000  0.0000  0.2273  0.0000  0.0000  0.0000  0.0000  0.0000  0.0000 </r>
        <r>  0.0000  0.0000  0.2273  0.0000  0.0000  0.0000  0.0000  0.0000  0.0000 </r>
       </set>
       <set comment="band 6">
        <r>  0.1826  0.0411  0.0000  0.0026  0.0000  0.0000  0.0000  0.0000  0.0000 </r>
        <r>  0.1826  0.0411  0.0000  0.0026  0.0000  0.0000  0.0000  0.0000  0.0000 </r>
       </set>
       <set comment="band 7">
        <r>  0.0045  0.0118  0.0000  0.0001  0.0000  0.0000  0.0000  0.0000  0.0000 </r>
        <r>  0.0045  0.0118  0.0000  0.0001  0.0000  0.0000  0.0000  0.0000  0.0000 </r>
       </set>
       <set comment="band 8">
        <r>  0.0000  0.0000  0.0219  0.0000  0.0000  0.0000  0.0000  0.0000  0.0000 </r>
        <r>  0.0000  0.0000  0.0219  0.0000  0.0000  0.0000  0.0000  0.0000  0.0000 </r>
       </set>
      </set>
     </set>
    </set>
   </array>
  </projected>
 </calculation>
 <structure name="finalpos" >
  <crystal>
   <varray name="basis" >
    <v>       2.46380000       0.00000000       0.00000000 </v>
    <v>      -1.23190000       2.13370008       0.00000000 </v>
    <v>       0.00000000       0.00000000      34.49320000 </v>
   </varray>
   <i name="volume">    181.33110586 </i>
   <varray name="rec_basis" >
    <v>       0.40587710       0.23433472       0.00000000 </v>
    <v>       0.00000000       0.46866943       0.00000000 </v>
    <v>       0.00000000       0.00000000       0.02899122 </v>
   </varray>
  </crystal>
  <varray name="positions" >
   <v>       0.00000000       0.00000000       0.00000000 </v>
   <v>       0.33333330       0.66666670       0.00000000 </v>
  </varray>
  <varray name="selective"  type="logical" >
   <v type="logical" >  T  T  F </v>
   <v type="logical" >  T  T  F </v>
  </varray>
  <nose>
   <v>      -3.00000000       0.00000000       0.00010000       0.00010000 </v>
  </nose>
 </structure>
</modeling>
