   1   1   1   0
  0.1185948E+02  0.2559727E-09  0.2559727E-09  0.2559727E-09  0.5000000E-15
  1.000000000000000E-004
  CAR 
 "Cu metal"                              
     34.84143093     -4.00888136  301      7.34909306      1.00000000
     -4.009  0.0000E+00  0.0000E+00
     -3.879  0.0000E+00  0.0000E+00
     -3.750  0.0000E+00  0.0000E+00
     -3.620 -0.1018E-30 -0.1318E-31
     -3.491 -0.2370E-26 -0.3070E-27
     -3.361 -0.2396E-22 -0.3103E-23
     -3.232 -0.1052E-18 -0.1363E-19
     -3.102 -0.1944E-15 -0.2519E-16
     -2.973 -0.1601E-12 -0.2076E-13
     -2.843 -0.5720E-10 -0.7428E-11
     -2.714 -0.8851E-08 -0.1154E-08
     -2.584 -0.5907E-06 -0.7765E-07
     -2.455 -0.1677E-04 -0.2250E-05
     -2.325 -0.1941E-03 -0.2738E-04
     -2.196 -0.7610E-03 -0.1259E-03
     -2.066  0.5355E-03 -0.5658E-04
     -1.937  0.9738E-02  0.1205E-02
     -1.807  0.2537E-01  0.4491E-02
     -1.678  0.3862E-01  0.9491E-02
     -1.548  0.4787E-01  0.1569E-01
     -1.419  0.5551E-01  0.2288E-01
     -1.289  0.6249E-01  0.3097E-01
     -1.160  0.6896E-01  0.3990E-01
     -1.030  0.7526E-01  0.4965E-01
     -0.901  0.8107E-01  0.6015E-01
     -0.771  0.8718E-01  0.7144E-01
     -0.642  0.9244E-01  0.8341E-01
     -0.512  0.9882E-01  0.9620E-01
     -0.383  0.1036E+00  0.1096E+00
     -0.253  0.1104E+00  0.1239E+00
     -0.124  0.1154E+00  0.1389E+00
      0.006  0.1215E+00  0.1546E+00
      0.135  0.1287E+00  0.1713E+00
      0.265  0.1328E+00  0.1885E+00
      0.394  0.1427E+00  0.2069E+00
      0.524  0.1471E+00  0.2260E+00
      0.653  0.1556E+00  0.2461E+00
      0.783  0.1659E+00  0.2676E+00
      0.912  0.1705E+00  0.2897E+00
      1.042  0.1852E+00  0.3137E+00
      1.171  0.1940E+00  0.3388E+00
      1.301  0.2053E+00  0.3654E+00
      1.430  0.2251E+00  0.3946E+00
      1.560  0.2370E+00  0.4253E+00
      1.689  0.2625E+00  0.4592E+00
      1.819  0.2890E+00  0.4967E+00
      1.948  0.3208E+00  0.5382E+00
      2.078  0.3777E+00  0.5871E+00
      2.207  0.4677E+00  0.6477E+00
      2.337  0.6259E+00  0.7288E+00
      2.466  0.8322E+00  0.8365E+00
      2.596  0.1055E+01  0.9731E+00
      2.725  0.1180E+01  0.1126E+01
      2.855  0.1243E+01  0.1287E+01
      2.984  0.1441E+01  0.1474E+01
      3.114  0.1847E+01  0.1713E+01
      3.243  0.2232E+01  0.2002E+01
      3.373  0.2316E+01  0.2302E+01
      3.502  0.2175E+01  0.2583E+01
      3.632  0.2076E+01  0.2852E+01
      3.761  0.2106E+01  0.3125E+01
      3.891  0.2408E+01  0.3437E+01
      4.020  0.2845E+01  0.3805E+01
      4.150  0.3184E+01  0.4218E+01
      4.279  0.3572E+01  0.4680E+01
      4.409  0.4050E+01  0.5205E+01
      4.538  0.4186E+01  0.5747E+01
      4.668  0.3507E+01  0.6201E+01
      4.797  0.2749E+01  0.6557E+01
      4.927  0.2801E+01  0.6919E+01
      5.056  0.3377E+01  0.7357E+01
      5.186  0.3639E+01  0.7828E+01
      5.315  0.3379E+01  0.8266E+01
      5.445  0.3234E+01  0.8684E+01
      5.574  0.3887E+01  0.9188E+01
      5.704  0.4848E+01  0.9816E+01
      5.833  0.3938E+01  0.1033E+02
      5.963  0.1576E+01  0.1053E+02
      6.092  0.3781E+00  0.1058E+02
      6.222  0.3053E+00  0.1062E+02
      6.351  0.3653E+00  0.1067E+02
      6.481  0.3660E+00  0.1071E+02
      6.610  0.3576E+00  0.1076E+02
      6.740  0.3419E+00  0.1080E+02
      6.869  0.3376E+00  0.1085E+02
      6.999  0.3277E+00  0.1089E+02
      7.128  0.3094E+00  0.1093E+02
      7.258  0.3249E+00  0.1097E+02
      7.387  0.3036E+00  0.1101E+02
      7.517  0.2825E+00  0.1105E+02
      7.646  0.3106E+00  0.1109E+02
      7.776  0.2974E+00  0.1113E+02
      7.905  0.2614E+00  0.1116E+02
      8.035  0.2768E+00  0.1120E+02
      8.164  0.3007E+00  0.1123E+02
      8.294  0.2683E+00  0.1127E+02
      8.423  0.2393E+00  0.1130E+02
      8.553  0.2693E+00  0.1134E+02
      8.682  0.2889E+00  0.1137E+02
      8.812  0.2578E+00  0.1141E+02
      8.941  0.2360E+00  0.1144E+02
      9.071  0.2547E+00  0.1147E+02
      9.200  0.2721E+00  0.1151E+02
      9.330  0.2507E+00  0.1154E+02
      9.459  0.2222E+00  0.1157E+02
      9.589  0.2121E+00  0.1159E+02
      9.718  0.2286E+00  0.1162E+02
      9.848  0.2389E+00  0.1165E+02
      9.977  0.2111E+00  0.1168E+02
     10.107  0.1789E+00  0.1170E+02
     10.236  0.1798E+00  0.1173E+02
     10.366  0.2018E+00  0.1175E+02
     10.495  0.1961E+00  0.1178E+02
     10.625  0.1653E+00  0.1180E+02
     10.754  0.1431E+00  0.1182E+02
     10.884  0.1442E+00  0.1184E+02
     11.013  0.1646E+00  0.1186E+02
     11.143  0.1997E+00  0.1189E+02
     11.272  0.2415E+00  0.1192E+02
     11.402  0.2783E+00  0.1195E+02
     11.531  0.2967E+00  0.1199E+02
     11.661  0.2913E+00  0.1203E+02
     11.790  0.2872E+00  0.1207E+02
     11.920  0.2947E+00  0.1210E+02
     12.049  0.3008E+00  0.1214E+02
     12.179  0.2867E+00  0.1218E+02
     12.308  0.2818E+00  0.1222E+02
     12.438  0.2837E+00  0.1225E+02
     12.567  0.2925E+00  0.1229E+02
     12.697  0.2931E+00  0.1233E+02
     12.826  0.2736E+00  0.1236E+02
     12.956  0.2619E+00  0.1240E+02
     13.085  0.2501E+00  0.1243E+02
     13.215  0.2468E+00  0.1246E+02
     13.344  0.2630E+00  0.1250E+02
     13.474  0.2599E+00  0.1253E+02
     13.603  0.2401E+00  0.1256E+02
     13.733  0.2276E+00  0.1259E+02
     13.862  0.2330E+00  0.1262E+02
     13.992  0.2360E+00  0.1265E+02
     14.121  0.2312E+00  0.1268E+02
     14.251  0.2246E+00  0.1271E+02
     14.380  0.2260E+00  0.1274E+02
     14.510  0.2579E+00  0.1277E+02
     14.639  0.3012E+00  0.1281E+02
     14.769  0.3183E+00  0.1285E+02
     14.898  0.3014E+00  0.1289E+02
     15.028  0.2954E+00  0.1293E+02
     15.157  0.3206E+00  0.1297E+02
     15.287  0.3451E+00  0.1302E+02
     15.416  0.3562E+00  0.1306E+02
     15.546  0.3446E+00  0.1311E+02
     15.675  0.3305E+00  0.1315E+02
     15.805  0.3377E+00  0.1319E+02
     15.934  0.3661E+00  0.1324E+02
     16.064  0.3761E+00  0.1329E+02
     16.193  0.3548E+00  0.1334E+02
     16.323  0.3438E+00  0.1338E+02
     16.452  0.3446E+00  0.1343E+02
     16.582  0.3434E+00  0.1347E+02
     16.711  0.3654E+00  0.1352E+02
     16.841  0.3892E+00  0.1357E+02
     16.970  0.3856E+00  0.1362E+02
     17.100  0.3518E+00  0.1366E+02
     17.229  0.3323E+00  0.1371E+02
     17.359  0.3597E+00  0.1375E+02
     17.488  0.3924E+00  0.1380E+02
     17.618  0.3869E+00  0.1385E+02
     17.747  0.3773E+00  0.1390E+02
     17.877  0.3709E+00  0.1395E+02
     18.006  0.3580E+00  0.1400E+02
     18.136  0.3695E+00  0.1405E+02
     18.265  0.3878E+00  0.1410E+02
     18.395  0.3956E+00  0.1415E+02
     18.524  0.3850E+00  0.1420E+02
     18.654  0.3873E+00  0.1425E+02
     18.783  0.3818E+00  0.1430E+02
     18.913  0.3783E+00  0.1435E+02
     19.042  0.3903E+00  0.1440E+02
     19.172  0.4054E+00  0.1445E+02
     19.301  0.4148E+00  0.1450E+02
     19.431  0.3938E+00  0.1455E+02
     19.560  0.3838E+00  0.1460E+02
     19.690  0.4142E+00  0.1466E+02
     19.819  0.4243E+00  0.1471E+02
     19.949  0.4081E+00  0.1476E+02
     20.078  0.4175E+00  0.1482E+02
     20.208  0.4420E+00  0.1488E+02
     20.337  0.4519E+00  0.1493E+02
     20.467  0.4376E+00  0.1499E+02
     20.596  0.4515E+00  0.1505E+02
     20.726  0.4685E+00  0.1511E+02
     20.855  0.4550E+00  0.1517E+02
     20.985  0.4428E+00  0.1523E+02
     21.114  0.4368E+00  0.1528E+02
     21.244  0.4256E+00  0.1534E+02
     21.373  0.4232E+00  0.1539E+02
     21.503  0.4586E+00  0.1545E+02
     21.632  0.4314E+00  0.1551E+02
     21.762  0.3859E+00  0.1556E+02
     21.891  0.4142E+00  0.1561E+02
     22.021  0.4330E+00  0.1567E+02
     22.150  0.4053E+00  0.1572E+02
     22.280  0.3857E+00  0.1577E+02
     22.409  0.4020E+00  0.1582E+02
     22.539  0.4048E+00  0.1587E+02
     22.668  0.3880E+00  0.1592E+02
     22.798  0.3827E+00  0.1597E+02
     22.927  0.3630E+00  0.1602E+02
     23.057  0.3699E+00  0.1607E+02
     23.186  0.3985E+00  0.1612E+02
     23.316  0.3851E+00  0.1617E+02
     23.445  0.3332E+00  0.1621E+02
     23.575  0.3227E+00  0.1626E+02
     23.704  0.3820E+00  0.1631E+02
     23.834  0.3829E+00  0.1635E+02
     23.963  0.3208E+00  0.1640E+02
     24.093  0.3036E+00  0.1644E+02
     24.222  0.3499E+00  0.1648E+02
     24.352  0.3716E+00  0.1653E+02
     24.481  0.3129E+00  0.1657E+02
     24.611  0.2746E+00  0.1661E+02
     24.740  0.3113E+00  0.1665E+02
     24.870  0.3516E+00  0.1669E+02
     24.999  0.3283E+00  0.1673E+02
     25.129  0.2802E+00  0.1677E+02
     25.258  0.2587E+00  0.1680E+02
     25.388  0.2971E+00  0.1684E+02
     25.517  0.3148E+00  0.1688E+02
     25.647  0.2876E+00  0.1692E+02
     25.776  0.2671E+00  0.1695E+02
     25.906  0.2627E+00  0.1699E+02
     26.035  0.2805E+00  0.1702E+02
     26.165  0.2652E+00  0.1706E+02
     26.294  0.2414E+00  0.1709E+02
     26.424  0.2498E+00  0.1712E+02
     26.553  0.2698E+00  0.1716E+02
     26.683  0.2650E+00  0.1719E+02
     26.812  0.2280E+00  0.1722E+02
     26.942  0.2191E+00  0.1725E+02
     27.071  0.2299E+00  0.1728E+02
     27.201  0.2490E+00  0.1731E+02
     27.330  0.2426E+00  0.1734E+02
     27.460  0.2175E+00  0.1737E+02
     27.589  0.2125E+00  0.1740E+02
     27.719  0.2255E+00  0.1743E+02
     27.848  0.2259E+00  0.1746E+02
     27.978  0.1991E+00  0.1748E+02
     28.107  0.2141E+00  0.1751E+02
     28.237  0.2308E+00  0.1754E+02
     28.366  0.2078E+00  0.1757E+02
     28.496  0.1884E+00  0.1759E+02
     28.625  0.1944E+00  0.1762E+02
     28.755  0.1991E+00  0.1764E+02
     28.884  0.1972E+00  0.1767E+02
     29.014  0.1906E+00  0.1769E+02
     29.143  0.1726E+00  0.1772E+02
     29.273  0.1750E+00  0.1774E+02
     29.402  0.1675E+00  0.1776E+02
     29.532  0.1423E+00  0.1778E+02
     29.661  0.1307E+00  0.1780E+02
     29.791  0.1231E+00  0.1781E+02
     29.920  0.1238E+00  0.1783E+02
     30.050  0.1238E+00  0.1784E+02
     30.179  0.1158E+00  0.1786E+02
     30.309  0.1004E+00  0.1787E+02
     30.438  0.9502E-01  0.1788E+02
     30.568  0.8769E-01  0.1789E+02
     30.697  0.8479E-01  0.1791E+02
     30.827  0.9636E-01  0.1792E+02
     30.956  0.8479E-01  0.1793E+02
     31.086  0.6603E-01  0.1794E+02
     31.215  0.6770E-01  0.1795E+02
     31.345  0.7770E-01  0.1796E+02
     31.474  0.6810E-01  0.1797E+02
     31.604  0.5341E-01  0.1797E+02
     31.733  0.5751E-01  0.1798E+02
     31.863  0.4596E-01  0.1799E+02
     31.992  0.2126E-01  0.1799E+02
     32.122  0.1979E-01  0.1799E+02
     32.251  0.2710E-01  0.1799E+02
     32.381  0.1902E-01  0.1800E+02
     32.510  0.6429E-02  0.1800E+02
     32.640  0.4143E-02  0.1800E+02
     32.769  0.6350E-02  0.1800E+02
     32.899  0.4327E-02  0.1800E+02
     33.028  0.8905E-03  0.1800E+02
     33.158 -0.1986E-03  0.1800E+02
     33.287 -0.9814E-04  0.1800E+02
     33.417 -0.1190E-04  0.1800E+02
     33.546 -0.5531E-06  0.1800E+02
     33.676 -0.1059E-07  0.1800E+02
     33.805 -0.8528E-10  0.1800E+02
     33.935 -0.2910E-12  0.1800E+02
     34.064 -0.4221E-15  0.1800E+02
     34.194  0.0000E+00  0.1800E+02
     34.323  0.0000E+00  0.1800E+02
     34.453  0.0000E+00  0.1800E+02
     34.582  0.0000E+00  0.1800E+02
     34.712  0.0000E+00  0.1800E+02
     34.841  0.0000E+00  0.1800E+02
     34.84143093     -4.00888136  301      7.34909306      1.00000000
     -4.009  0.0000E+00  0.0000E+00  0.0000E+00  0.0000E+00  0.0000E+00  0.0000E+00  0.0000E+00  0.0000E+00  0.0000E+00
     -3.879  0.0000E+00  0.0000E+00  0.0000E+00  0.0000E+00  0.0000E+00  0.0000E+00  0.0000E+00  0.0000E+00  0.0000E+00
     -3.750  0.0000E+00  0.0000E+00  0.0000E+00  0.0000E+00  0.0000E+00  0.0000E+00  0.0000E+00  0.0000E+00  0.0000E+00
     -3.620 -0.5954E-31 -0.4867E-34 -0.2257E-34 -0.2257E-34 -0.4134E-37 -0.4141E-37 -0.1983E-37 -0.7435E-37 -0.5950E-37
     -3.491 -0.1386E-26 -0.1234E-29 -0.5773E-30 -0.5776E-30 -0.1103E-32 -0.1094E-32 -0.5476E-33 -0.2073E-32 -0.1634E-32
     -3.361 -0.1401E-22 -0.1361E-25 -0.6434E-26 -0.6442E-26 -0.1305E-28 -0.1282E-28 -0.6622E-29 -0.2516E-28 -0.1967E-28
     -3.232 -0.6152E-19 -0.6564E-22 -0.3134E-22 -0.3142E-22 -0.6931E-25 -0.6701E-25 -0.3545E-25 -0.1339E-24 -0.1045E-24
     -3.102 -0.1137E-15 -0.1347E-18 -0.6470E-19 -0.6503E-19 -0.1615E-21 -0.1517E-21 -0.8217E-22 -0.3033E-21 -0.2388E-21
     -2.973 -0.9358E-13 -0.1249E-15 -0.6015E-16 -0.6070E-16 -0.1751E-18 -0.1579E-18 -0.8701E-19 -0.3112E-18 -0.2476E-18
     -2.843 -0.3341E-10 -0.5123E-13 -0.2445E-13 -0.2487E-13 -0.8649E-16 -0.7338E-16 -0.4164E-16 -0.1411E-15 -0.1147E-15
     -2.714 -0.5168E-08 -0.9347E-11 -0.4359E-11 -0.4495E-11 -0.1958E-13 -0.1528E-13 -0.9065E-14 -0.2853E-13 -0.2386E-13
     -2.584 -0.3446E-06 -0.7616E-09 -0.3408E-09 -0.3596E-09 -0.2041E-11 -0.1435E-11 -0.9058E-12 -0.2596E-11 -0.2249E-11
     -2.455 -0.9774E-05 -0.2776E-07 -0.1165E-07 -0.1275E-07 -0.9864E-10 -0.6147E-10 -0.4192E-10 -0.1074E-09 -0.9707E-10
     -2.325 -0.1129E-03 -0.4493E-06 -0.1712E-06 -0.1984E-06 -0.2220E-08 -0.1215E-08 -0.9063E-09 -0.2037E-08 -0.1938E-08
     -2.196 -0.4405E-03 -0.3071E-05 -0.1015E-05 -0.1287E-05 -0.2305E-07 -0.1108E-07 -0.9167E-08 -0.1783E-07 -0.1785E-07
     -2.066  0.3242E-03 -0.6367E-05 -0.1592E-05 -0.2419E-05 -0.1014E-06 -0.4347E-07 -0.4142E-07 -0.7038E-07 -0.7062E-07
     -1.937  0.5674E-02  0.1832E-04  0.5999E-05  0.7901E-05 -0.8244E-07 -0.2988E-07 -0.5055E-07 -0.7732E-07 -0.4876E-07
     -1.807  0.1466E-01  0.1199E-03  0.3500E-04  0.4864E-04  0.8016E-06  0.3535E-06  0.2763E-06  0.4744E-06  0.5697E-06
     -1.678  0.2210E-01  0.2985E-03  0.9964E-04  0.1236E-03  0.3606E-05  0.1650E-05  0.1544E-05  0.2801E-05  0.2648E-05
     -1.548  0.2708E-01  0.5239E-03  0.2003E-03  0.2235E-03  0.9331E-05  0.4413E-05  0.4340E-05  0.8247E-05  0.7115E-05
     -1.419  0.3103E-01  0.7985E-03  0.3132E-03  0.3419E-03  0.1948E-04  0.9157E-05  0.9078E-05  0.1739E-04  0.1493E-04
     -1.289  0.3451E-01  0.1125E-02  0.4288E-03  0.4764E-03  0.3566E-04  0.1643E-04  0.1627E-04  0.3081E-04  0.2700E-04
     -1.160  0.3762E-01  0.1474E-02  0.5693E-03  0.6250E-03  0.5752E-04  0.2679E-04  0.2685E-04  0.5107E-04  0.4389E-04
     -1.030  0.4052E-01  0.1825E-02  0.7590E-03  0.7887E-03  0.8543E-04  0.4113E-04  0.4171E-04  0.8063E-04  0.6659E-04
     -0.901  0.4308E-01  0.2219E-02  0.9410E-03  0.9628E-03  0.1226E-03  0.5967E-04  0.6090E-04  0.1188E-03  0.9673E-04
     -0.771  0.4570E-01  0.2641E-02  0.1156E-02  0.1156E-02  0.1699E-03  0.8466E-04  0.8562E-04  0.1693E-03  0.1362E-03
     -0.642  0.4778E-01  0.3131E-02  0.1315E-02  0.1346E-02  0.2339E-03  0.1149E-03  0.1154E-03  0.2262E-03  0.1863E-03
     -0.512  0.5034E-01  0.3625E-02  0.1559E-02  0.1579E-02  0.3109E-03  0.1547E-03  0.1543E-03  0.3075E-03  0.2498E-03
     -0.383  0.5200E-01  0.4187E-02  0.1709E-02  0.1769E-02  0.4090E-03  0.2035E-03  0.1985E-03  0.3867E-03  0.3275E-03
     -0.253  0.5451E-01  0.4641E-02  0.2093E-02  0.2056E-02  0.5107E-03  0.2619E-03  0.2634E-03  0.5361E-03  0.4198E-03
     -0.124  0.5611E-01  0.5250E-02  0.2282E-02  0.2251E-02  0.6556E-03  0.3393E-03  0.3301E-03  0.6466E-03  0.5348E-03
      0.006  0.5803E-01  0.5820E-02  0.2600E-02  0.2546E-02  0.8083E-03  0.4264E-03  0.4170E-03  0.8578E-03  0.6776E-03
      0.135  0.6042E-01  0.6417E-02  0.2976E-02  0.2837E-02  0.1012E-02  0.5390E-03  0.5274E-03  0.1067E-02  0.8435E-03
      0.265  0.6114E-01  0.7218E-02  0.3023E-02  0.3035E-02  0.1270E-02  0.6764E-03  0.6309E-03  0.1264E-02  0.1060E-02
      0.394  0.6439E-01  0.7770E-02  0.3669E-02  0.3487E-02  0.1527E-02  0.8383E-03  0.8028E-03  0.1706E-02  0.1310E-02
      0.524  0.6504E-01  0.8690E-02  0.3657E-02  0.3643E-02  0.1943E-02  0.1045E-02  0.9576E-03  0.1899E-02  0.1617E-02
      0.653  0.6715E-01  0.9443E-02  0.4087E-02  0.4060E-02  0.2326E-02  0.1295E-02  0.1171E-02  0.2480E-02  0.2002E-02
      0.783  0.6995E-01  0.1001E-01  0.4846E-02  0.4468E-02  0.2786E-02  0.1604E-02  0.1482E-02  0.3136E-02  0.2420E-02
      0.912  0.7000E-01  0.1115E-01  0.4649E-02  0.4621E-02  0.3514E-02  0.1985E-02  0.1731E-02  0.3532E-02  0.2994E-02
      1.042  0.7384E-01  0.1188E-01  0.5582E-02  0.5282E-02  0.4160E-02  0.2471E-02  0.2166E-02  0.4802E-02  0.3686E-02
      1.171  0.7508E-01  0.1277E-01  0.5925E-02  0.5500E-02  0.5134E-02  0.3078E-02  0.2646E-02  0.5608E-02  0.4485E-02
      1.301  0.7661E-01  0.1414E-01  0.5935E-02  0.5909E-02  0.6424E-02  0.3844E-02  0.3134E-02  0.6847E-02  0.5616E-02
      1.430  0.8095E-01  0.1493E-01  0.7130E-02  0.6619E-02  0.7754E-02  0.4880E-02  0.3972E-02  0.9080E-02  0.6925E-02
      1.560  0.8153E-01  0.1638E-01  0.6949E-02  0.6743E-02  0.9880E-02  0.6188E-02  0.4762E-02  0.1054E-01  0.8646E-02
      1.689  0.8588E-01  0.1776E-01  0.7740E-02  0.7571E-02  0.1237E-01  0.7999E-02  0.5932E-02  0.1413E-01  0.1096E-01
      1.819  0.8952E-01  0.1885E-01  0.8688E-02  0.8037E-02  0.1560E-01  0.1050E-01  0.7574E-02  0.1803E-01  0.1379E-01
      1.948  0.9276E-01  0.2079E-01  0.8755E-02  0.8521E-02  0.2050E-01  0.1400E-01  0.9392E-02  0.2325E-01  0.1790E-01
      2.078  0.1007E+00  0.2242E-01  0.1007E-01  0.9465E-02  0.2841E-01  0.2061E-01  0.1214E-01  0.3350E-01  0.2308E-01
      2.207  0.1107E+00  0.2472E-01  0.1034E-01  0.9819E-02  0.4597E-01  0.3573E-01  0.1527E-01  0.5249E-01  0.2957E-01
      2.337  0.1273E+00  0.2764E-01  0.1125E-01  0.1060E-01  0.7307E-01  0.5903E-01  0.2297E-01  0.8481E-01  0.4867E-01
      2.466  0.1382E+00  0.3101E-01  0.1188E-01  0.1103E-01  0.9356E-01  0.7392E-01  0.4882E-01  0.1124E+00  0.1185E+00
      2.596  0.1398E+00  0.3334E-01  0.1272E-01  0.1225E-01  0.1015E+00  0.7512E-01  0.9254E-01  0.1309E+00  0.2320E+00
      2.725  0.1309E+00  0.3282E-01  0.1367E-01  0.1400E-01  0.1055E+00  0.7224E-01  0.1270E+00  0.1456E+00  0.3028E+00
      2.855  0.1157E+00  0.3046E-01  0.1431E-01  0.1581E-01  0.1092E+00  0.6911E-01  0.1476E+00  0.1898E+00  0.3191E+00
      2.984  0.9865E-01  0.2678E-01  0.1541E-01  0.1762E-01  0.1103E+00  0.6418E-01  0.1700E+00  0.3820E+00  0.3199E+00
      3.114  0.7997E-01  0.2153E-01  0.1929E-01  0.2111E-01  0.1044E+00  0.5534E-01  0.2130E+00  0.7615E+00  0.3120E+00
      3.243  0.5889E-01  0.1468E-01  0.2858E-01  0.2762E-01  0.8521E-01  0.4214E-01  0.2793E+00  0.1129E+01  0.2856E+00
      3.373  0.3488E-01  0.7385E-02  0.4158E-01  0.3282E-01  0.5259E-01  0.3023E-01  0.3009E+00  0.1298E+01  0.2436E+00
      3.502  0.1453E-01  0.3609E-02  0.4961E-01  0.3291E-01  0.3907E-01  0.2988E-01  0.2765E+00  0.1241E+01  0.2417E+00
      3.632  0.5612E-02  0.7405E-02  0.4477E-01  0.3049E-01  0.1095E+00  0.4940E-01  0.2920E+00  0.1025E+01  0.2869E+00
      3.761  0.4440E-02  0.1846E-01  0.3341E-01  0.2845E-01  0.2987E+00  0.1165E+00  0.3148E+00  0.7668E+00  0.3092E+00
      3.891  0.7531E-02  0.3560E-01  0.2816E-01  0.2782E-01  0.5859E+00  0.2378E+00  0.3150E+00  0.6383E+00  0.3010E+00
      4.020  0.1384E-01  0.5444E-01  0.2848E-01  0.2733E-01  0.8597E+00  0.3165E+00  0.3363E+00  0.6560E+00  0.2955E+00
      4.150  0.2112E-01  0.7084E-01  0.2775E-01  0.2517E-01  0.1020E+01  0.2959E+00  0.4071E+00  0.7173E+00  0.3288E+00
      4.279  0.2812E-01  0.8309E-01  0.2544E-01  0.2244E-01  0.1096E+01  0.2896E+00  0.5188E+00  0.7892E+00  0.4419E+00
      4.409  0.2944E-01  0.7973E-01  0.2244E-01  0.2070E-01  0.1154E+01  0.4629E+00  0.6212E+00  0.7993E+00  0.5893E+00
      4.538  0.2441E-01  0.6298E-01  0.1897E-01  0.1884E-01  0.1158E+01  0.7438E+00  0.6367E+00  0.6372E+00  0.6457E+00
      4.668  0.1907E-01  0.4943E-01  0.1628E-01  0.1585E-01  0.9108E+00  0.8449E+00  0.5592E+00  0.3237E+00  0.5802E+00
      4.797  0.1477E-01  0.4071E-01  0.1500E-01  0.1272E-01  0.5698E+00  0.7322E+00  0.5448E+00  0.1139E+00  0.5631E+00
      4.927  0.1234E-01  0.3413E-01  0.1474E-01  0.1062E-01  0.4198E+00  0.6188E+00  0.6927E+00  0.6901E-01  0.8032E+00
      5.056  0.1269E-01  0.3000E-01  0.1416E-01  0.9453E-02  0.4015E+00  0.6053E+00  0.9098E+00  0.6674E-01  0.1203E+01
      5.186  0.1329E-01  0.2690E-01  0.1137E-01  0.8379E-02  0.3902E+00  0.6389E+00  0.1058E+01  0.6766E-01  0.1309E+01
      5.315  0.1179E-01  0.2316E-01  0.7834E-02  0.7074E-02  0.3800E+00  0.6882E+00  0.1076E+01  0.7630E-01  0.1018E+01
      5.445  0.1031E-01  0.1922E-01  0.6034E-02  0.5683E-02  0.4156E+00  0.8410E+00  0.1023E+01  0.9851E-01  0.7444E+00
      5.574  0.1050E-01  0.1555E-01  0.5353E-02  0.4389E-02  0.5725E+00  0.1364E+01  0.1032E+01  0.1347E+00  0.6877E+00
      5.704  0.1245E-01  0.1260E-01  0.4954E-02  0.3865E-02  0.7938E+00  0.2162E+01  0.9948E+00  0.1589E+00  0.6497E+00
      5.833  0.1513E-01  0.1075E-01  0.4466E-02  0.4160E-02  0.6845E+00  0.2035E+01  0.6253E+00  0.1302E+00  0.3857E+00
      5.963  0.1810E-01  0.1130E-01  0.4447E-02  0.5032E-02  0.2935E+00  0.8209E+00  0.1939E+00  0.8914E-01  0.1099E+00
      6.092  0.2098E-01  0.1366E-01  0.5535E-02  0.6280E-02  0.9634E-01  0.3123E-01  0.5737E-01  0.7641E-01  0.4055E-01
      6.222  0.2342E-01  0.1628E-01  0.7051E-02  0.7582E-02  0.8220E-01 -0.4660E-01  0.5893E-01  0.7346E-01  0.4803E-01
      6.351  0.2540E-01  0.1890E-01  0.8651E-02  0.8959E-02  0.8430E-01  0.1400E-02  0.5854E-01  0.6973E-01  0.4897E-01
      6.481  0.2680E-01  0.2130E-01  0.1007E-01  0.1024E-01  0.7833E-01  0.1285E-01  0.5242E-01  0.6393E-01  0.4508E-01
      6.610  0.2825E-01  0.2327E-01  0.1133E-01  0.1119E-01  0.7041E-01  0.1342E-01  0.4694E-01  0.6158E-01  0.4248E-01
      6.740  0.2869E-01  0.2515E-01  0.1174E-01  0.1171E-01  0.6632E-01  0.1269E-01  0.4256E-01  0.5379E-01  0.3833E-01
      6.869  0.3003E-01  0.2653E-01  0.1302E-01  0.1254E-01  0.5957E-01  0.1202E-01  0.3891E-01  0.5391E-01  0.3699E-01
      6.999  0.3021E-01  0.2794E-01  0.1359E-01  0.1276E-01  0.5434E-01  0.1154E-01  0.3601E-01  0.5091E-01  0.3467E-01
      7.128  0.2938E-01  0.2989E-01  0.1319E-01  0.1302E-01  0.5330E-01  0.1097E-01  0.3251E-01  0.3989E-01  0.3059E-01
      7.258  0.3215E-01  0.3088E-01  0.1561E-01  0.1439E-01  0.4711E-01  0.1032E-01  0.3165E-01  0.4885E-01  0.3249E-01
      7.387  0.3048E-01  0.3146E-01  0.1514E-01  0.1342E-01  0.4304E-01  0.9831E-02  0.2918E-01  0.4251E-01  0.2868E-01
      7.517  0.2829E-01  0.3394E-01  0.1365E-01  0.1336E-01  0.4419E-01  0.9288E-02  0.2599E-01  0.2937E-01  0.2495E-01
      7.646  0.3234E-01  0.3541E-01  0.1667E-01  0.1560E-01  0.4066E-01  0.8873E-02  0.2623E-01  0.4017E-01  0.2827E-01
      7.776  0.3147E-01  0.3472E-01  0.1726E-01  0.1452E-01  0.3506E-01  0.8428E-02  0.2507E-01  0.4030E-01  0.2575E-01
      7.905  0.2651E-01  0.3679E-01  0.1432E-01  0.1284E-01  0.3547E-01  0.7979E-02  0.2184E-01  0.2447E-01  0.2060E-01
      8.035  0.2875E-01  0.3947E-01  0.1493E-01  0.1472E-01  0.3639E-01  0.7515E-02  0.2094E-01  0.2616E-01  0.2236E-01
      8.164  0.3229E-01  0.4004E-01  0.1842E-01  0.1640E-01  0.3267E-01  0.7243E-02  0.2180E-01  0.3618E-01  0.2422E-01
      8.294  0.2786E-01  0.3967E-01  0.1721E-01  0.1377E-01  0.2853E-01  0.6950E-02  0.1987E-01  0.2881E-01  0.1967E-01
      8.423  0.2373E-01  0.4124E-01  0.1404E-01  0.1202E-01  0.2847E-01  0.6578E-02  0.1703E-01  0.1846E-01  0.1653E-01
      8.553  0.2712E-01  0.4537E-01  0.1586E-01  0.1513E-01  0.3031E-01  0.6258E-02  0.1740E-01  0.2294E-01  0.1915E-01
      8.682  0.2983E-01  0.4752E-01  0.1845E-01  0.1635E-01  0.2839E-01  0.5967E-02  0.1789E-01  0.2914E-01  0.1999E-01
      8.812  0.2513E-01  0.4845E-01  0.1659E-01  0.1300E-01  0.2479E-01  0.5838E-02  0.1588E-01  0.2269E-01  0.1599E-01
      8.941  0.2071E-01  0.5078E-01  0.1454E-01  0.1129E-01  0.2378E-01  0.5704E-02  0.1410E-01  0.1581E-01  0.1338E-01
      9.071  0.2245E-01  0.5430E-01  0.1534E-01  0.1358E-01  0.2534E-01  0.5424E-02  0.1379E-01  0.1780E-01  0.1484E-01
      9.200  0.2583E-01  0.5401E-01  0.1709E-01  0.1550E-01  0.2575E-01  0.5191E-02  0.1406E-01  0.2251E-01  0.1604E-01
      9.330  0.2306E-01  0.5152E-01  0.1636E-01  0.1346E-01  0.2399E-01  0.5038E-02  0.1339E-01  0.1950E-01  0.1367E-01
      9.459  0.1804E-01  0.5149E-01  0.1438E-01  0.1062E-01  0.2192E-01  0.4924E-02  0.1164E-01  0.1394E-01  0.1097E-01
      9.589  0.1677E-01  0.5017E-01  0.1366E-01  0.1036E-01  0.2072E-01  0.4901E-02  0.1043E-01  0.1272E-01  0.1036E-01
      9.718  0.1946E-01  0.4835E-01  0.1579E-01  0.1350E-01  0.2128E-01  0.4464E-02  0.1095E-01  0.1652E-01  0.1184E-01
      9.848  0.2058E-01  0.5148E-01  0.1605E-01  0.1396E-01  0.2273E-01  0.4268E-02  0.1100E-01  0.1725E-01  0.1190E-01
      9.977  0.1686E-01  0.5146E-01  0.1308E-01  0.1038E-01  0.2145E-01  0.4271E-02  0.9377E-02  0.1248E-01  0.9322E-02
     10.107  0.1280E-01  0.4421E-01  0.1222E-01  0.8687E-02  0.1785E-01  0.3996E-02  0.8373E-02  0.9733E-02  0.7573E-02
     10.236  0.1251E-01  0.4268E-01  0.1351E-01  0.9587E-02  0.1679E-01  0.3957E-02  0.8193E-02  0.1079E-01  0.7721E-02
     10.366  0.1508E-01  0.4737E-01  0.1466E-01  0.1145E-01  0.1868E-01  0.3695E-02  0.8054E-02  0.1333E-01  0.8582E-02
     10.495  0.1490E-01  0.4645E-01  0.1374E-01  0.1119E-01  0.1879E-01  0.3365E-02  0.7714E-02  0.1259E-01  0.8045E-02
     10.625  0.1146E-01  0.4099E-01  0.1153E-01  0.8798E-02  0.1643E-01  0.3382E-02  0.6988E-02  0.9144E-02  0.6350E-02
     10.754  0.8349E-02  0.3827E-01  0.9977E-02  0.6901E-02  0.1464E-01  0.3034E-02  0.5868E-02  0.6902E-02  0.5132E-02
     10.884  0.6883E-02  0.4023E-01  0.1052E-01  0.6950E-02  0.1470E-01  0.2494E-02  0.5443E-02  0.6959E-02  0.4997E-02
     11.013  0.1198E-01  0.3992E-01  0.1281E-01  0.8716E-02  0.1555E-01  0.3640E-02  0.5733E-02  0.1042E-01  0.5456E-02
     11.143  0.3190E-01  0.3472E-01  0.1268E-01  0.9044E-02  0.1949E-01  0.9160E-02  0.5420E-02  0.1650E-01  0.5087E-02
     11.272  0.5744E-01  0.3324E-01  0.9749E-02  0.6922E-02  0.2664E-01  0.1637E-01  0.4297E-02  0.2144E-01  0.3855E-02
     11.402  0.7176E-01  0.3736E-01  0.9880E-02  0.6139E-02  0.3171E-01  0.1978E-01  0.3949E-02  0.2456E-01  0.3266E-02
     11.531  0.7572E-01  0.4017E-01  0.1225E-01  0.6682E-02  0.3244E-01  0.2025E-01  0.3906E-02  0.2636E-01  0.3091E-02
     11.661  0.7687E-01  0.3451E-01  0.1454E-01  0.7508E-02  0.2916E-01  0.1978E-01  0.3428E-02  0.2772E-01  0.2861E-02
     11.790  0.7725E-01  0.3049E-01  0.1614E-01  0.8585E-02  0.2708E-01  0.1876E-01  0.3247E-02  0.2830E-01  0.2802E-02
     11.920  0.7688E-01  0.3541E-01  0.1584E-01  0.8847E-02  0.2862E-01  0.1805E-01  0.3285E-02  0.2713E-01  0.2665E-02
     12.049  0.7517E-01  0.4212E-01  0.1507E-01  0.8545E-02  0.3050E-01  0.1747E-01  0.3057E-02  0.2547E-01  0.2438E-02
     12.179  0.7251E-01  0.3872E-01  0.1585E-01  0.8173E-02  0.2772E-01  0.1680E-01  0.2479E-02  0.2484E-01  0.1973E-02
     12.308  0.7119E-01  0.3426E-01  0.1910E-01  0.8925E-02  0.2453E-01  0.1657E-01  0.2433E-02  0.2602E-01  0.1698E-02
     12.438  0.6717E-01  0.3616E-01  0.2111E-01  0.9924E-02  0.2398E-01  0.1595E-01  0.2671E-02  0.2567E-01  0.1893E-02
     12.567  0.6382E-01  0.4104E-01  0.2219E-01  0.1128E-01  0.2532E-01  0.1511E-01  0.2898E-02  0.2498E-01  0.2476E-02
     12.697  0.6022E-01  0.4282E-01  0.2296E-01  0.1250E-01  0.2551E-01  0.1396E-01  0.3076E-02  0.2440E-01  0.2729E-02
     12.826  0.5629E-01  0.3719E-01  0.2341E-01  0.1246E-01  0.2225E-01  0.1341E-01  0.2961E-02  0.2351E-01  0.2427E-02
     12.956  0.5350E-01  0.3541E-01  0.2323E-01  0.1178E-01  0.2075E-01  0.1336E-01  0.2785E-02  0.2235E-01  0.2136E-02
     13.085  0.4970E-01  0.3447E-01  0.2265E-01  0.1138E-01  0.2016E-01  0.1247E-01  0.2764E-02  0.2088E-01  0.1956E-02
     13.215  0.4580E-01  0.3349E-01  0.2473E-01  0.1218E-01  0.1926E-01  0.1162E-01  0.2968E-02  0.2082E-01  0.2158E-02
     13.344  0.4558E-01  0.3369E-01  0.2996E-01  0.1428E-01  0.1872E-01  0.1180E-01  0.3330E-02  0.2312E-01  0.2697E-02
     13.474  0.4461E-01  0.3208E-01  0.3008E-01  0.1522E-01  0.1778E-01  0.1168E-01  0.3288E-02  0.2300E-01  0.2735E-02
     13.603  0.4175E-01  0.2977E-01  0.2656E-01  0.1465E-01  0.1674E-01  0.1094E-01  0.3060E-02  0.2064E-01  0.2379E-02
     13.733  0.3949E-01  0.2769E-01  0.2588E-01  0.1378E-01  0.1562E-01  0.1061E-01  0.2927E-02  0.1956E-01  0.2052E-02
     13.862  0.3810E-01  0.2862E-01  0.2931E-01  0.1323E-01  0.1554E-01  0.1084E-01  0.3010E-02  0.2037E-01  0.1902E-02
     13.992  0.3629E-01  0.2681E-01  0.3320E-01  0.1399E-01  0.1466E-01  0.1053E-01  0.3057E-02  0.2158E-01  0.2167E-02
     14.121  0.3419E-01  0.2514E-01  0.3237E-01  0.1581E-01  0.1391E-01  0.9952E-02  0.3051E-02  0.2100E-01  0.2665E-02
     14.251  0.3313E-01  0.2445E-01  0.3012E-01  0.1669E-01  0.1344E-01  0.9879E-02  0.3004E-02  0.1998E-01  0.2401E-02
     14.380  0.3505E-01  0.2377E-01  0.2979E-01  0.1615E-01  0.1299E-01  0.9975E-02  0.3409E-02  0.1954E-01  0.3485E-02
     14.510  0.4513E-01  0.2465E-01  0.3193E-01  0.1587E-01  0.1314E-01  0.9784E-02  0.5888E-02  0.1981E-01  0.1042E-01
     14.639  0.5864E-01  0.2304E-01  0.3524E-01  0.1704E-01  0.1227E-01  0.9380E-02  0.9700E-02  0.2043E-01  0.2087E-01
     14.769  0.6313E-01  0.2198E-01  0.3540E-01  0.1859E-01  0.1146E-01  0.9238E-02  0.1188E-01  0.1975E-01  0.2630E-01
     14.898  0.5768E-01  0.2392E-01  0.3044E-01  0.1910E-01  0.1181E-01  0.9328E-02  0.1125E-01  0.1736E-01  0.2427E-01
     15.028  0.5843E-01  0.2461E-01  0.2798E-01  0.1926E-01  0.1171E-01  0.9207E-02  0.1047E-01  0.1672E-01  0.2237E-01
     15.157  0.7022E-01  0.2356E-01  0.3189E-01  0.1980E-01  0.1101E-01  0.8955E-02  0.1059E-01  0.1928E-01  0.2304E-01
     15.287  0.8068E-01  0.2218E-01  0.3623E-01  0.2019E-01  0.1022E-01  0.8705E-02  0.1096E-01  0.2151E-01  0.2446E-01
     15.416  0.8321E-01  0.2463E-01  0.3601E-01  0.2023E-01  0.1071E-01  0.8733E-02  0.1162E-01  0.2094E-01  0.2605E-01
     15.546  0.7861E-01  0.2759E-01  0.3088E-01  0.1990E-01  0.1127E-01  0.8822E-02  0.1197E-01  0.1797E-01  0.2631E-01
     15.675  0.7389E-01  0.2589E-01  0.2805E-01  0.2123E-01  0.1035E-01  0.8755E-02  0.1229E-01  0.1640E-01  0.2570E-01
     15.805  0.7391E-01  0.2518E-01  0.2998E-01  0.2402E-01  0.9787E-02  0.8338E-02  0.1243E-01  0.1748E-01  0.2516E-01
     15.934  0.7763E-01  0.2798E-01  0.3466E-01  0.2697E-01  0.1031E-01  0.8245E-02  0.1290E-01  0.1979E-01  0.2586E-01
     16.064  0.7730E-01  0.2940E-01  0.3822E-01  0.2728E-01  0.1057E-01  0.8451E-02  0.1273E-01  0.2090E-01  0.2548E-01
     16.193  0.7125E-01  0.2912E-01  0.3707E-01  0.2499E-01  0.1049E-01  0.8566E-02  0.1172E-01  0.1973E-01  0.2281E-01