    1    1    1    1
  0.1185948E+02  0.2559727E-09  0.2559727E-09  0.2559727E-09  0.5000000E-15
  1.000000000000000E-004
  CAR 
 "Cu metal"                              
   11 1771    9
 
  0.0000000E+00  0.0000000E+00  0.0000000E+00  0.1450937E-04
   1       -2.008881
   2        4.334224
   3        4.334224
   4        4.334224
   5        5.163435
   6        5.163435
   7       29.899231
   8       32.478941
   9       32.478952
 
  0.2439024E-01  0.0000000E+00  0.0000000E+00  0.1160749E-03
   1       -1.987230
   2        4.329522
   3        4.338449
   4        4.338449
   5        5.161691
   6        5.161691
   7       29.805723
   8       32.022861
   9       32.395991
 
  0.4878049E-01  0.0000000E+00  0.0000000E+00  0.1160749E-03
   1       -1.922333
   2        4.315698
   3        4.350820
   4        4.350821
   5        5.156754
   6        5.156754
   7       29.423500
   8       31.290001
   9       32.183719
 
  0.7317073E-01  0.0000000E+00  0.0000000E+00  0.1160749E-03
   1       -1.814653
   2        4.293407
   3        4.370343
   4        4.370344
   5        5.149226
   6        5.149226
   7       28.595227
   8       30.844481
   9       31.905836
 
  0.9756098E-01  0.0000000E+00  0.0000000E+00  0.1160749E-03
   1       -1.664847
   2        4.264047
   3        4.395525
   4        4.395525
   5        5.141172
   6        5.141172
   7       27.468040
   8       30.642435
   9       31.606326
 
  0.1219512E+00  0.0000000E+00  0.0000000E+00  0.1160749E-03
   1       -1.474008
   2        4.229216
   3        4.423770
   4        4.423770
   5        5.134365
   6        5.134366
   7       26.233567
   8       30.522072
   9       31.308372
 
  0.1463415E+00  0.0000000E+00  0.0000000E+00  0.1160749E-03
   1       -1.243633
   2        4.191364
   3        4.452002
   4        4.452002
   5        5.132288
   6        5.132288
   7       24.969523
   8       30.415683
   9       31.023665
 
  0.1707317E+00  0.0000000E+00  0.0000000E+00  0.1160749E-03
   1       -0.975822
   2        4.153567
   3        4.476292
   4        4.476292
   5        5.138292
   6        5.138292
   7       23.705493
   8       30.298078
   9       30.758105
 
  0.1951220E+00  0.0000000E+00  0.0000000E+00  0.1160749E-03
   1       -0.673538
   2        4.118621
   3        4.492847
   4        4.492847
   5        5.155591
   6        5.155592
   7       22.454972
   8       30.159739
   9       30.514675
 
  0.2195122E+00  0.0000000E+00  0.0000000E+00  0.1160749E-03
   1       -0.340866
   2        4.092114
   3        4.499117
   4        4.499117
   5        5.186296
   6        5.186297
   7       21.225508
   8       29.998988
   9       30.294811
 
  0.2439024E+00  0.0000000E+00  0.0000000E+00  0.1160749E-03
   1        0.016261
   2        4.080123
   3        4.494609
   4        4.494610
   5        5.230368
   6        5.230368
   7       20.022278
   8       29.818985
   9       30.099036
 
  0.2682927E+00  0.0000000E+00  0.0000000E+00  0.1160749E-03
   1        0.389410
   2        4.090205
   3        4.480838
   4        4.480839
   5        5.285272
   6        5.285273
   7       18.849216
   8       29.625815
   9       29.927344
 
  0.2926829E+00  0.0000000E+00  0.0000000E+00  0.1160749E-03
   1        0.766352
   2        4.134235
   3        4.460244
   4        4.460244
   5        5.347699
   6        5.347699
   7       17.710389
   8       29.426926
   9       29.779311
 
  0.3170732E+00  0.0000000E+00  0.0000000E+00  0.1160749E-03
   1        1.130413
   2        4.226801
   3        4.435553
   4        4.435553
   5        5.413474
   6        5.413475
   7       16.610100
   8       29.230067
   9       29.654265
 
  0.3414634E+00  0.0000000E+00  0.0000000E+00  0.1160749E-03
   1        1.460923
   2        4.385096
   3        4.409274
   4        4.409274
   5        5.479257
   6        5.479258
   7       15.553938
   8       29.042487
   9       29.551200
 
  0.3658537E+00  0.0000000E+00  0.0000000E+00  0.1160749E-03
   1        1.737944
   2        4.383440
   3        4.383441
   4        4.623116
   5        5.541825
   6        5.541825
   7       14.549566
   8       28.870559
   9       29.468797
 
  0.3902439E+00  0.0000000E+00  0.0000000E+00  0.1160749E-03
   1        1.949938
   2        4.359683
   3        4.359684
   4        4.942054
   5        5.598405
   6        5.598406
   7       13.608624
   8       28.719630
   9       29.405388
 
  0.4146341E+00  0.0000000E+00  0.0000000E+00  0.1160749E-03
   1        2.098599
   2        4.339270
   3        4.339271
   4        5.322751
   5        5.646625
   6        5.646625
   7       12.749991
   8       28.594009
   9       29.358928
 
  0.4390244E+00  0.0000000E+00  0.0000000E+00  0.1160749E-03
   1        2.194775
   2        4.323012
   3        4.323013
   4        5.684468
   5        5.684469
   6        5.722989
   7       12.005871
   8       28.497006
   9       29.327102
 
  0.4634146E+00  0.0000000E+00  0.0000000E+00  0.1160749E-03
   1        2.250934
   2        4.311715
   3        4.311715
   4        5.710415
   5        5.710415
   6        6.076110
   7       11.431006
   8       28.431042
   9       29.307576
 
  0.4878049E+00  0.0000000E+00  0.0000000E+00  0.1160749E-03
   1        2.276637
   2        4.306046
   3        4.306046
   4        5.723723
   5        5.723723
   6        6.292148
   7       11.106384
   8       28.397677
   9       29.298384
 
  0.2439024E-01  0.2439024E-01  0.0000000E+00  0.8705619E-04
   1       -1.980009
   2        4.325600
   3        4.341059
   4        4.341060
   5        5.155605
   6        5.166577
   7       29.789522
   8       32.107509
   9       32.308422
 
  0.4878049E-01  0.2439024E-01  0.0000000E+00  0.3482248E-03
   1       -1.929525
   2        4.313504
   3        4.350940
   4        4.351888
   5        5.146037
   6        5.168095
   7       29.551362
   8       31.424568
   9       31.761487
 
  0.7317073E-01  0.2439024E-01  0.0000000E+00  0.3482248E-03
   1       -1.836119
   2        4.293729
   3        4.367598
   4        4.370076
   5        5.133780
   6        5.166800
   7       28.907898
   8       30.813369
   9       31.399168
 
  0.9756098E-01  0.2439024E-01  0.0000000E+00  0.3482248E-03
   1       -1.700364
   2        4.266536
   3        4.390619
   4        4.394183
   5        5.120329
   6        5.164181
   7       27.869987
   8       30.500820
   9       31.042950
 
  0.1219512E+00  0.2439024E-01  0.0000000E+00  0.3482248E-03
   1       -1.523194
   2        4.233402
   3        4.418072
   4        4.421892
   5        5.107708
   6        5.162299
   7       26.663354
   8       30.315082
   9       30.703523
 
  0.1463415E+00  0.2439024E-01  0.0000000E+00  0.3482248E-03
   1       -1.305988
   2        4.196273
   3        4.446887
   4        4.450211
   5        5.098799
   6        5.163588
   7       25.406054
   8       30.159890
   9       30.386577
 
  0.1707317E+00  0.2439024E-01  0.0000000E+00  0.3482248E-03
   1       -1.050584
   2        4.158033
   3        4.473198
   4        4.475517
   5        5.097485
   6        5.171346
   7       24.140578
   8       30.005758
   9       30.095225
 
  0.1951220E+00  0.2439024E-01  0.0000000E+00  0.3482248E-03
   1       -0.759682
   2        4.121454
   3        4.492579
   4        4.494343
   5        5.107844
   6        5.188698
   7       22.884774
   8       29.831221
   9       29.845243
 
  0.2195122E+00  0.2439024E-01  0.0000000E+00  0.3482248E-03
   1       -0.436890
   2        4.091350
   3        4.501539
   4        4.503894
   5        5.133055
   6        5.217737
   7       21.647734
   8       29.595617
   9       29.678317
 
  0.2439024E+00  0.2439024E-01  0.0000000E+00  0.3482248E-03
   1       -0.087493
   2        4.073226
   3        4.498810
   4        4.503131
   5        5.174106
   6        5.258933
   7       20.435315
   8       29.389113
   9       29.507436
 
  0.2682927E+00  0.2439024E-01  0.0000000E+00  0.3482248E-03
   1        0.281033
   2        4.073798
   3        4.485540
   4        4.492858
   5        5.228878
   6        5.310317
   7       19.251702
   8       29.212244
   9       29.335692
 
  0.2926829E+00  0.2439024E-01  0.0000000E+00  0.3482248E-03
   1        0.657845
   2        4.103443
   3        4.464569
   4        4.475129
   5        5.294420
   6        5.369387
   7       18.100890
   8       29.065504
   9       29.166255
 
  0.3170732E+00  0.2439024E-01  0.0000000E+00  0.3482248E-03
   1        1.027777
   2        4.175213
   3        4.438843
   4        4.452355
   5        5.366846
   6        5.431933
   7       16.987010
   8       28.949394
   9       29.002283
 
  0.3414634E+00  0.2439024E-01  0.0000000E+00  0.3482248E-03
   1        1.371226
   2        4.304853
   3        4.411176
   4        4.427002
   5        5.443181
   6        5.494758
   7       15.915076
   8       28.846977
   9       28.864445
 
  0.3658537E+00  0.2439024E-01  0.0000000E+00  0.3482248E-03
   1        1.667198
   2        4.383809
   3        4.401189
   4        4.506283
   5        5.522307
   6        5.554635
   7       14.891879
   8       28.703533
   9       28.811174
 
  0.3902439E+00  0.2439024E-01  0.0000000E+00  0.3482248E-03
   1        1.900615
   2        4.358488
   3        4.376659
   4        4.780690
   5        5.606723
   6        5.608737
   7       13.927348
   8       28.574977
   9       28.790015
 
  0.4146341E+00  0.2439024E-01  0.0000000E+00  0.3482248E-03
   1        2.068684
   2        4.336544
   3        4.354712
   4        5.099291
   5        5.654560
   6        5.710630
   7       13.037342
   8       28.463873
   9       28.801174
 
  0.4390244E+00  0.2439024E-01  0.0000000E+00  0.3482248E-03
   1        2.180321
   2        4.318833
   3        4.336564
   4        5.378971
   5        5.690199
   6        5.880767
   7       12.248547
   8       28.371977
   9       28.849085
 
  0.4634146E+00  0.2439024E-01  0.0000000E+00  0.3482248E-03
   1        2.248159
   2        4.306241
   3        4.323103
   4        5.532702
   5        5.714047
   6        6.144270
   7       11.607149
   8       28.299825
   9       28.920981
 
  0.4878049E+00  0.2439024E-01  0.0000000E+00  0.3482248E-03
   1        2.283019
   2        4.299321
   3        4.314852
   4        5.596419
   5        5.725232
   6        6.379654
   7       11.186955
   8       28.246433
   9       29.051471
 
 -0.4878049E+00  0.2439024E-01  0.0000000E+00  0.3482248E-03
   1        2.291258
   2        4.298116
   3        4.312008
   4        5.614178
   5        5.723100
   6        6.450624
   7       11.073171
   8       28.209309
   9       29.073491
 
 -0.4634146E+00  0.2439024E-01  0.0000000E+00  0.3482248E-03
   1        2.274590
   2        4.302844
   3        4.315167
   4        5.593862
   5        5.707768
   6        6.316842
   7       11.296926
   8       28.185315
   9       28.995850
 
 -0.4390244E+00  0.2439024E-01  0.0000000E+00  0.3482248E-03
   1        2.229743
   2        4.313297
   3        4.323793
   4        5.513095
   5        5.679647
   6        6.061086
   7       11.800706
   8       28.172417
   9       28.993344
 
 -0.4146341E+00  0.2439024E-01  0.0000000E+00  0.3482248E-03
   1        2.148663
   2        4.328699
   3        4.337699
   4        5.310059
   5        5.639350
   6        5.839927
   7       12.498013
   8       28.171288
   9       29.036917
 
 -0.3902439E+00  0.2439024E-01  0.0000000E+00  0.3482248E-03
   1        2.019583
   2        4.348596
   3        4.356471
   4        4.997523
   5        5.588718
   6        5.717593
   7       13.324515
   8       28.185002
   9       29.131401
 
 -0.3658537E+00  0.2439024E-01  0.0000000E+00  0.3482248E-03
   1        1.830302
   2        4.372113
   3        4.379109
   4        4.684947
   5        5.529524
   6        5.636385
   7       14.241660
   8       28.217291
   9       29.265029
 
 -0.3414634E+00  0.2439024E-01  0.0000000E+00  0.3482248E-03
   1        1.575044
   2        4.397582
   3        4.404547
   4        4.432876
   5        5.464078
   6        5.564685
   7       15.227154
   8       28.271149
   9       29.431780
 
 -0.3170732E+00  0.2439024E-01  0.0000000E+00  0.3482248E-03
   1        1.261109
   2        4.255394
   3        4.424860
   4        4.431335
   5        5.395088
   6        5.494830
   7       16.267494
   8       28.348417
   9       29.623674
 
 -0.2926829E+00  0.2439024E-01  0.0000000E+00  0.3482248E-03
   1        0.906423
   2        4.146647
   3        4.450609
   4        4.457547
   5        5.325726
   6        5.426182
   7       17.354065
   8       28.449907
   9       29.833519
 
 -0.2682927E+00  0.2439024E-01  0.0000000E+00  0.3482248E-03
   1        0.532210
   2        4.090463
   3        4.473159
   4        4.480706
   5        5.259372
   6        5.360389
   7       18.480734
   8       28.575650
   9       30.052513
 
 -0.2439024E+00  0.2439024E-01  0.0000000E+00  0.3482248E-03
   1        0.156680
   2        4.071784
   3        4.490111
   4        4.497868
   5        5.200414
   6        5.300461
   7       19.642917
   8       28.725074
   9       30.271985
 
 -0.2195122E+00  0.2439024E-01  0.0000000E+00  0.3482248E-03
   1       -0.206494
   2        4.078393
   3        4.498987
   4        4.506021
   5        5.152879
   6        5.249528
   7       20.836546
   8       28.897065
   9       30.483941
 
 -0.1951220E+00  0.2439024E-01  0.0000000E+00  0.3482248E-03
   1       -0.547741
   2        4.101228
   3        4.497901
   4        4.502932
   5        5.119650
   6        5.209903
   7       22.057669
   8       29.089939
   9       30.680522
 
 -0.1707317E+00  0.2439024E-01  0.0000000E+00  0.3482248E-03
   1       -0.860403
   2        4.134124
   3        4.486606
   4        4.488359
   5        5.101883
   6        5.182912
   7       23.301638
   8       29.301372
   9       30.858442
 
 -0.1463415E+00  0.2439024E-01  0.0000000E+00  0.3482248E-03
   1       -1.139821
   2        4.171712
   3        4.464687
   4        4.466592
   5        5.097582
   6        5.167559
   7       24.561755
   8       29.528515
   9       31.017313
 
 -0.1219512E+00  0.2439024E-01  0.0000000E+00  0.3482248E-03
   1       -1.382751
   2        4.210030
   3        4.435915
   4        4.440794
   5        5.103080
   6        5.161015
   7       25.826683
   8       29.769237
   9       31.164663
 
 -0.9756098E-01  0.2439024E-01  0.0000000E+00  0.3482248E-03
   1       -1.586776
   2        4.246233
   3        4.406362
   4        4.412958
   5        5.114380
   6        5.160209
   7       27.072341
   8       30.028100
   9       31.313261
 
 -0.7317073E-01  0.2439024E-01  0.0000000E+00  0.3482248E-03
   1       -1.750283
   2        4.277814
   3        4.379630
   4        4.386552
   5        5.128126
   6        5.162058
   7       28.236514
   8       30.339711
   9       31.479401
 
 -0.4878049E-01  0.2439024E-01  0.0000000E+00  0.3482248E-03
   1       -1.871997
   2        4.303026
   3        4.358419
   4        4.364137
   5        5.141666
   6        5.164153
   7       29.152887
   8       30.827866
   9       31.678246
 
 -0.2439024E-01  0.2439024E-01  0.0000000E+00  0.1741124E-03
   1       -1.951152
   2        4.320587
   3        4.344359
   4        4.347669
   5        5.153328
   6        5.164400
   7       29.637434
   8       31.567500
   9       31.937633
 
  0.4878049E-01  0.4878049E-01  0.0000000E+00  0.8705619E-04
   1       -1.893516
   2        4.299977
   3        4.361451
   4        4.361452
   5        5.132076
   6        5.175929
   7       29.498195
   8       31.329328
   9       31.329641
 
  0.7317073E-01  0.4878049E-01  0.0000000E+00  0.3482248E-03
   1       -1.814558
   2        4.279939
   3        4.377811
   4        4.378718
   5        5.115491
   6        5.180765
   7       29.120026
   8       30.708832
   9       30.907959
 
  0.9756098E-01  0.4878049E-01  0.0000000E+00  0.3482248E-03
   1       -1.693114
   2        4.253687
   3        4.399590
   4        4.402187
   5        5.097244
   6        5.183544
   7       28.260357
   8       30.257095
   9       30.507009
 
  0.1219512E+00  0.4878049E-01  0.0000000E+00  0.3482248E-03
   1       -1.530018
   2        4.221668
   3        4.425936
   4        4.429803
   5        5.079333
   6        5.186176
   7       27.110851
   8       30.007479
   9       30.131632
 
  0.1463415E+00  0.4878049E-01  0.0000000E+00  0.3482248E-03
   1       -1.326501
   2        4.185343
   3        4.454412
   4        4.458757
   5        5.064863
   6        5.191076
   7       25.869097
   8       29.784682
   9       29.818662
 
  0.1707317E+00  0.4878049E-01  0.0000000E+00  0.3482248E-03
   1       -1.084209
   2        4.146921
   3        4.481097
   4        4.485711
   5        5.057964
   6        5.200896
   7       24.605582
   8       29.467833
   9       29.645032
 
  0.1951220E+00  0.4878049E-01  0.0000000E+00  0.3482248E-03
   1       -0.805581
   2        4.109134
   3        4.501035
   4        4.507163
   5        5.063697
   6        5.218694
   7       23.346090
   8       29.182179
   9       29.475094
 
  0.2195122E+00  0.4878049E-01  0.0000000E+00  0.3482248E-03
   1       -0.493849
   2        4.075492
   3        4.509858
   4        4.520107
   5        5.086543
   6        5.246530
   7       22.102436
   8       28.928503
   9       29.306593
 
  0.2439024E+00  0.4878049E-01  0.0000000E+00  0.3482248E-03
   1       -0.153710
   2        4.051320
   3        4.505705
   4        4.523328
   5        5.128263
   6        5.285577
   7       20.881423
   8       28.707505
   9       29.140078
 
  0.2682927E+00  0.4878049E-01  0.0000000E+00  0.3482248E-03
   1        0.208185
   2        4.042554
   3        4.489779
   4        4.516805
   5        5.187577
   6        5.334235
   7       19.687737
   8       28.519869
   9       28.976971
 
  0.2926829E+00  0.4878049E-01  0.0000000E+00  0.3482248E-03
   1        0.582218
   2        4.057269
   3        4.465430
   4        4.502119
   5        5.261108
   6        5.390080
   7       18.525290
   8       28.366367
   9       28.818965
 
  0.3170732E+00  0.4878049E-01  0.0000000E+00  0.3482248E-03
   1        0.954717
   2        4.106815
   3        4.436206
   4        4.481636
   5        5.346073
   6        5.449885
   7       17.398106
   8       28.247885
   9       28.667685
 
  0.3414634E+00  0.4878049E-01  0.0000000E+00  0.3482248E-03
   1        1.307452
   2        4.204446
   3        4.405216
   4        4.457617
   5        5.441182
   6        5.510088
   7       16.310699
   8       28.165416
   9       28.524404
 
  0.3658537E+00  0.4878049E-01  0.0000000E+00  0.3482248E-03
   1        1.619223
   2        4.357851
   3        4.379070
   4        4.432219
   5        5.547529
   6        5.567544
   7       15.269042
   8       28.120048
   9       28.389641
 
  0.3902439E+00  0.4878049E-01  0.0000000E+00  0.3482248E-03
   1        1.872166
   2        4.345440
   3        4.407109
   4        4.582109
   5        5.619267
   6        5.672318
   7       14.281537
   8       28.112911
   9       28.262468
 
  0.4146341E+00  0.4878049E-01  0.0000000E+00  0.3482248E-03
   1        2.059230
   2        4.320990
   3        4.384151
   4        4.837880
   5        5.663003
   6        5.832355
   7       13.361355
   8       28.139616
   9       28.145100
 
  0.4390244E+00  0.4878049E-01  0.0000000E+00  0.3482248E-03
   1        2.186423
   2        4.301044
   3        4.364375
   4        5.078006
   5        5.696618
   6        6.051472
   7       12.530366
   8       28.014893
   9       28.217570
 
  0.4634146E+00  0.4878049E-01  0.0000000E+00  0.3482248E-03
   1        2.266072
   2        4.286584
   3        4.348769
   4        5.253366
   5        5.718523
   6        6.326868
   7       11.826822
   8       27.880990
   9       28.331506
 
  0.4878049E+00  0.4878049E-01  0.0000000E+00  0.3482248E-03
   1        2.310142
   2        4.277980
   3        4.338195
   4        5.356185
   5        5.727692
   6        6.588079
   7       11.316003
   8       27.735357
   9       28.494804
 
 -0.4878049E+00  0.4878049E-01  0.0000000E+00  0.3482248E-03
   1        2.326568
   2        4.275565
   3        4.332808
   4        5.400222
   5        5.723505
   6        6.722411
   7       11.088090
   8       27.584839
   9       28.705959
 
 -0.4634146E+00  0.4878049E-01  0.0000000E+00  0.3482248E-03
   1        2.318560
   2        4.279317
   3        4.333053
   4        5.392263
   5        5.705947
   6        6.658201
   7       11.204414
   8       27.441936
   9       28.791429
 
 -0.4390244E+00  0.4878049E-01  0.0000000E+00  0.3482248E-03
   1        2.284533
   2        4.289105
   3        4.338888
   4        5.324716
   5        5.675548
   6        6.437709
   7       11.631616
   8       27.317988
   9       28.852854
 
 -0.4146341E+00  0.4878049E-01  0.0000000E+00  0.3482248E-03
   1        2.218027
   2        4.304403
   3        4.350309
   4        5.178441
   5        5.633062
   6        6.176238
   7       12.279976
   8       27.220512
   9       28.976211
 
 -0.3902439E+00  0.4878049E-01  0.0000000E+00  0.3482248E-03
   1        2.108319
   2        4.324543
   3        4.366892
   4        4.949613
   5        5.579982
   6        5.964584
   7       13.074017
   8       27.153763
   9       29.123569
 
 -0.3658537E+00  0.4878049E-01  0.0000000E+00  0.3482248E-03
   1        1.942473
   2        4.348667
   3        4.387957
   4        4.683631
   5        5.518129
   6        5.816918
   7       13.967577
   8       27.119743
   9       29.315706
 
 -0.3414634E+00  0.4878049E-01  0.0000000E+00  0.3482248E-03
   1        1.711421
   2        4.375180
   3        4.412667
   4        4.442768
   5        5.449727
   6        5.707643
   7       14.934457
   8       27.119098
   9       29.538343
 
 -0.3170732E+00  0.4878049E-01  0.0000000E+00  0.3482248E-03
   1        1.417624
   2        4.259223
   3        4.404873
   4        4.439510
   5        5.377375
   6        5.616202
   7       15.959173
   8       27.151660
   9       29.786283
 
 -0.2926829E+00  0.4878049E-01  0.0000000E+00  0.3482248E-03
   1        1.076086
   2        4.140913
   3        4.433190
   4        4.466842
   5        5.304082
   6        5.533634
   7       17.032062
   8       27.216781
   9       30.052126
 
 -0.2682927E+00  0.4878049E-01  0.0000000E+00  0.3482248E-03
   1        0.707781
   2        4.075917
   3        4.459339
   4        4.492268
   5        5.233461
   6        5.457122
   7       18.146505
   8       27.313562
   9       30.327153
 
 -0.2439024E+00  0.4878049E-01  0.0000000E+00  0.3482248E-03
   1        0.332387
   2        4.050507
   3        4.481144
   4        4.512698
   5        5.169824
   6        5.387199
   7       19.297590
   8       27.441005
   9       30.600442
 
 -0.2195122E+00  0.4878049E-01  0.0000000E+00  0.3482248E-03
   1       -0.034934
   2        4.052327
   3        4.496089
   4        4.524583
   5        5.117856
   6        5.325334
   7       20.481184
   8       27.598116
   9       30.858951
 
 -0.1951220E+00  0.4878049E-01  0.0000000E+00  0.3482248E-03
   1       -0.383259
   2        4.072373
   3        4.502229
   4        4.524706
   5        5.081455
   6        5.274150
   7       21.693334
   8       27.784057
   9       31.088388
 
 -0.1707317E+00  0.4878049E-01  0.0000000E+00  0.3482248E-03
   1       -0.705153
   2        4.103636
   3        4.498142
   4        4.511861
   5        5.062677
   6        5.234551
   7       22.929555
   8       27.998326
   9       31.275157
 
 -0.1463415E+00  0.4878049E-01  0.0000000E+00  0.3482248E-03
   1       -0.995282
   2        4.141010
   3        4.484427
   4        4.488142
   5        5.059923
   6        5.206973
   7       24.183442
   8       28.241459
   9       31.410313
 
 -0.1219512E+00  0.4878049E-01  0.0000000E+00  0.3482248E-03
   1       -1.250018
   2        4.179897
   3        4.458053
   4        4.462980
   5        5.068900
   6        5.189509
   7       25.443826
   8       28.516933
   9       31.492115
 
 -0.9756098E-01  0.4878049E-01  0.0000000E+00  0.3482248E-03
   1       -1.466686
   2        4.217850
   3        4.426557
   4        4.437051
   5        5.084984
   6        5.179428
   7       26.685257
   8       28.838598
   9       31.529235
 
 -0.7317073E-01  0.4878049E-01  0.0000000E+00  0.3482248E-03
   1       -1.643400
   2        4.252193
   3        4.397735
   4        4.410027
   5        5.104211
   6        5.173762
   7       27.831961
   8       29.262074
   9       31.539513
 
 -0.4878049E-01  0.4878049E-01  0.0000000E+00  0.1741124E-03
   1       -1.778830
   2        4.281046
   3        4.374384
   4        4.384974
   5        5.123781
   6        5.169359
   7       28.681308
   8       29.946300
   9       31.555487
 
  0.7317073E-01  0.7317073E-01  0.0000000E+00  0.8705619E-04
   1       -1.750103
   2        4.258068
   3        4.395388
   4        4.395388
   5        5.094417
   6        5.191294
   7       29.100055
   8       30.440772
   9       30.440803
 
  0.9756098E-01  0.7317073E-01  0.0000000E+00  0.3482248E-03
   1       -1.643154
   2        4.230534
   3        4.418029
   4        4.418721
   5        5.071516
   6        5.199274
   7       28.586174
   8       29.963301
   9       30.002020
 
  0.1219512E+00  0.7317073E-01  0.0000000E+00  0.3482248E-03
   1       -1.494455
   2        4.198041
   3        4.444750
   4        4.446784
   5        5.048747
   6        5.206463
   7       27.563330
   8       29.594165
   9       29.674177
 
  0.1463415E+00  0.7317073E-01  0.0000000E+00  0.3482248E-03
   1       -1.305075
   2        4.161425
   3        4.473438
   4        4.476918
   5        5.029185
   6        5.214694
   7       26.353908
   8       29.218684
   9       29.474351
 
  0.1707317E+00  0.7317073E-01  0.0000000E+00  0.3482248E-03
   1       -1.076515
   2        4.122364
   3        4.500170
   4        4.505952
   5        5.017746
   6        5.226744
   7       25.097803
   8       28.876558
   9       29.293855
 
  0.1951220E+00  0.7317073E-01  0.0000000E+00  0.3482248E-03
   1       -0.810985
   2        4.083067
   3        4.519329
   4        4.530430
   5        5.020669
   6        5.245178
   7       23.837087
   8       28.568517
   9       29.119259
 
  0.2195122E+00  0.7317073E-01  0.0000000E+00  0.3482248E-03
   1       -0.511381
   2        4.046575
   3        4.525498
   4        4.547307
   5        5.043864
   6        5.272425
   7       22.588256
   8       28.295228
   9       28.948434
 
  0.2439024E+00  0.7317073E-01  0.0000000E+00  0.3482248E-03
   1       -0.181933
   2        4.016909
   3        4.516631
   4        4.554728
   5        5.089638
   6        5.309597
   7       21.359586
   8       28.057353
   9       28.781453
 
  0.2682927E+00  0.7317073E-01  0.0000000E+00  0.3482248E-03
   1        0.171443
   2        3.999292
   3        4.494862
   4        4.552285
   5        5.156828
   6        5.356039
   7       20.156500
   8       27.855635
   9       28.618734
 
  0.2926829E+00  0.7317073E-01  0.0000000E+00  0.3482248E-03
   1        0.540203
   2        4.000491
   3        4.464421
   4        4.540956
   5        5.241832
   6        5.409352
   7       18.983034
   8       27.690944
   9       28.460441
 
  0.3170732E+00  0.7317073E-01  0.0000000E+00  0.3482248E-03
   1        0.912104
   2        4.029085
   3        4.429535
   4        4.523054
   5        5.342325
   6        5.466726
   7       17.843063
   8       27.564289
   9       28.305995
 
  0.3414634E+00  0.7317073E-01  0.0000000E+00  0.3482248E-03
   1        1.270429
   2        4.096117
   3        4.393771
   4        4.500663
   5        5.458081
   6        5.524717
   7       16.740745
   8       27.476794
   9       28.153267
 
  0.3658537E+00  0.7317073E-01  0.0000000E+00  0.3482248E-03
   1        1.594509
   2        4.210350
   3        4.361357
   4        4.475984
   5        5.580024
   6        5.592364
   7       15.681292
   8       27.429687
   9       27.997428
 
  0.3902439E+00  0.7317073E-01  0.0000000E+00  0.3482248E-03
   1        1.864655
   2        4.310667
   3        4.398485
   4        4.451022
   5        5.629902
   6        5.753375
   7       14.671835
   8       27.424252
   9       27.829763
 
  0.4146341E+00  0.7317073E-01  0.0000000E+00  0.3482248E-03
   1        2.069758
   2        4.291063
   3        4.427254
   4        4.597159
   5        5.671649
   6        5.954845
   7       13.723114
   8       27.461767
   9       27.638881
 
  0.4390244E+00  0.7317073E-01  0.0000000E+00  0.3482248E-03
   1        2.212401
   2        4.269207
   3        4.406063
   4        4.806076
   5        5.703487
   6        6.210837
   7       12.852822
   8       27.418194
   9       27.543446
 
  0.4634146E+00  0.7317073E-01  0.0000000E+00  0.3482248E-03
   1        2.303900
   2        4.252582
   3        4.388672
   4        4.981010
   5        5.723643
   6        6.515036
   7       12.091882
   8       27.174876
   9       27.670334
 
  0.4878049E+00  0.7317073E-01  0.0000000E+00  0.3482248E-03
   1        2.357096
   2        4.241991
   3        4.375552
   4        5.102558
   5        5.730810
   6        6.816787
   7       11.495953
   8       26.926523
   9       27.843446
 
 -0.4878049E+00  0.7317073E-01  0.0000000E+00  0.3482248E-03
   1        2.381447
   2        4.238125
   3        4.367516
   4        5.168803
   5        5.724694
   6        7.018377
   7       11.154033
   8       26.690388
   9       28.062811
 
 -0.4634146E+00  0.7317073E-01  0.0000000E+00  0.3482248E-03