       N       E                     dE             d eps       ncg     rms          rms(c)
DAV:   1     0.324667450192E+02    0.32467E+02   -0.52229E+03 32790   0.182E+03
DAV:   2    -0.499192069438E+01   -0.37459E+02   -0.35529E+02 32051   0.187E+02
DAV:   3    -0.537591307680E+01   -0.38399E+00   -0.38304E+00 37441   0.277E+01
DAV:   4    -0.537847021112E+01   -0.25571E-02   -0.25569E-02 38218   0.201E+00
DAV:   5    -0.537849928439E+01   -0.29073E-04   -0.29073E-04 37378   0.172E-01    0.838E+00
DAV:   6    -0.477285091506E+01    0.60565E+00   -0.20840E+01 33565   0.105E+02    0.444E+00
DAV:   7    -0.431066500243E+01    0.46219E+00   -0.32445E+00 33953   0.412E+01    0.532E-01
DAV:   8    -0.429979433824E+01    0.10871E-01   -0.79517E-03 39789   0.196E+00    0.352E-01
DAV:   9    -0.429757681285E+01    0.22175E-02   -0.14611E-02 35051   0.254E+00    0.265E-02
DAV:  10    -0.429758099717E+01   -0.41843E-05   -0.52052E-05 45968   0.151E-01    0.568E-03
DAV:  11    -0.429758228353E+01   -0.12864E-05   -0.42730E-07 22987   0.990E-03    0.711E-04
DAV:  12    -0.429758225149E+01    0.32038E-07   -0.67559E-08 17736   0.502E-03
   1 F= -.42975823E+01 E0= -.42976282E+01  d E =0.137759E-03
