 vasp.5.3.2 13Sep12 (build Nov 15 2012 16:01:14) complex                        
  
 executed on             LinuxIFC date 2014.04.25  14:43:57
 serial version


--------------------------------------------------------------------------------------------------------


 INCAR:
 POTCAR:    PAW_PBE Cu 22Jun2005                  
 POTCAR:    PAW_PBE Cu 22Jun2005                  
   VRHFIN =Cu: d10 p1                                                           
   LEXCH  = PE                                                                  
   EATOM  =  1390.9808 eV,  102.2342 Ry                                         
                                                                                
   TITEL  = PAW_PBE Cu 22Jun2005                                                
   LULTRA =        F    use ultrasoft PP ?                                      
   IUNSCR =        1    unscreen: 0-lin 1-nonlin 2-no                           
   RPACOR =    2.000    partial core radius                                     
   POMASS =   63.546; ZVAL   =   11.000    mass and valenz                      
   RCORE  =    2.300    outmost cutoff radius                                   
   RWIGS  =    2.200; RWIGS  =    1.164    wigner-seitz radius (au A)           
   ENMAX  =  295.446; ENMIN  =  221.585 eV                                      
   ICORE  =        3    local potential                                         
   LCOR   =        T    correct aug charges                                     
   LPAW   =        T    paw PP                                                  
   EAUG   =  586.980                                                            
   DEXC   =    0.000                                                            
   RMAX   =    2.344    core radius for proj-oper                               
   RAUG   =    1.300    factor for augmentation sphere                          
   RDEP   =    2.302    radius for radial grids                                 
   RDEPT  =    1.771    core radius for aug-charge                              
                                                                                
   Atomic configuration                                                         
    9 entries                                                                   
     n  l   j            E        occ.                                          
     1  0  0.50     -8850.2468   2.0000                                         
     2  0  0.50     -1062.3498   2.0000                                         
     2  1  1.50      -916.8226   6.0000                                         
     3  0  0.50      -114.6929   2.0000                                         
     3  1  1.50       -72.1325   6.0000                                         
     3  2  2.50        -5.0394  10.0000                                         
     4  0  0.50        -4.6097   1.0000                                         
     4  1  0.50        -4.0817   0.0000                                         
     4  3  2.50        -1.3606   0.0000                                         
   Description                                                                  
     l       E           TYP  RCUT    TYP  RCUT                                 
     2     -5.0393973     23  2.200                                             
     2     10.8846608     23  2.200                                             
     0     -4.6097109     23  2.200                                             
     0      8.2520465     23  2.200                                             
     1     -2.7211652     23  2.200                                             
     1     21.7055443     23  2.200                                             
     3      2.7211652     23  2.300                                             
  local pseudopotential read in
  partial core-charges read in
  partial kinetic energy density read in
  atomic valenz-charges read in
  non local Contribution for L=           2  read in
    real space projection operators read in
  non local Contribution for L=           2  read in
    real space projection operators read in
  non local Contribution for L=           0  read in
    real space projection operators read in
  non local Contribution for L=           0  read in
    real space projection operators read in
  non local Contribution for L=           1  read in
    real space projection operators read in
  non local Contribution for L=           1  read in
    real space projection operators read in
    PAW grid and wavefunctions read in
 
   number of l-projection  operators is LMAX  =           6
   number of lm-projection operators is LMMAX =          18
 

 ----------------------------------------------------------------------------- 
|                                                                             |
|  ADVICE TO THIS USER RUNNING 'VASP/VAMP'   (HEAR YOUR MASTER'S VOICE ...):  |
|                                                                             |
|      You enforced a specific xc-type in the INCAR file,                     |
|      a different type was found on the POTCAR file                          |
|          I HOPE YOU KNOW, WHAT YOU ARE  DOING                               |
|                                                                             |
 ----------------------------------------------------------------------------- 

  PAW_PBE Cu 22Jun2005                  :
 energy of atom  1       EATOM=-1390.9808
 kinetic energy error for atom=    0.0097 (will be added to EATOM!!)
 
 
 POSCAR: Cu metal rhomboedrique                  
  positions in direct lattice
  No initial velocities read in
 exchange correlation table for  LEXCH =       14
   RHO(1)=    0.500       N(1)  =     2000
   RHO(2)=  100.500       N(2)  =     4000
 


--------------------------------------------------------------------------------------------------------


 ion  position               nearest neighbor table
   1  0.000  0.000  0.000-
 
  LATTYP: Found a face centered cubic cell.
 ALAT       =     3.6200000000
  
  Lattice vectors:
  
 A1 = (   1.8100000000,   1.8100000000,   0.0000000000)
 A2 = (   0.0000000000,   1.8100000000,   1.8100000000)
 A3 = (   1.8100000000,   0.0000000000,   1.8100000000)


Analysis of symmetry for initial positions (statically):
=====================================================================
 Subroutine PRICEL returns:
 Original cell was already a primitive cell.
 

 Routine SETGRP: Setting up the symmetry group for a 
 face centered cubic supercell.


 Subroutine GETGRP returns: Found 48 space group operations
 (whereof 48 operations were pure point group operations)
 out of a pool of 48 trial point group operations.


The static configuration has the point symmetry O_h .


Analysis of symmetry for dynamics (positions and initial velocities):
=====================================================================
 Subroutine PRICEL returns:
 Original cell was already a primitive cell.
 

 Routine SETGRP: Setting up the symmetry group for a 
 face centered cubic supercell.


 Subroutine GETGRP returns: Found 48 space group operations
 (whereof 48 operations were pure point group operations)
 out of a pool of 48 trial point group operations.


The dynamic configuration has the point symmetry O_h .
 
 
 KPOINTS: K-points grid                           

Automatic generation of k-mesh.
Space group operators:
 irot       det(A)        alpha          n_x          n_y          n_z        tau_x        tau_y        tau_z
    1     1.000000     0.000000     1.000000     0.000000     0.000000     0.000000     0.000000     0.000000
    2    -1.000000     0.000000     1.000000     0.000000     0.000000     0.000000     0.000000     0.000000
    3     1.000000   120.000000    -0.577350    -0.577350    -0.577350     0.000000     0.000000     0.000000
    4    -1.000000   120.000000    -0.577350    -0.577350    -0.577350     0.000000     0.000000     0.000000
    5     1.000000   120.000000     0.577350     0.577350     0.577350     0.000000     0.000000     0.000000
    6    -1.000000   120.000000     0.577350     0.577350     0.577350     0.000000     0.000000     0.000000
    7     1.000000    90.000000     0.000000    -1.000000     0.000000     0.000000     0.000000     0.000000
    8    -1.000000    90.000000     0.000000    -1.000000     0.000000     0.000000     0.000000     0.000000
    9     1.000000   180.000000     0.707107     0.707107     0.000000     0.000000     0.000000     0.000000
   10    -1.000000   180.000000     0.707107     0.707107     0.000000     0.000000     0.000000     0.000000
   11     1.000000    90.000000     1.000000     0.000000     0.000000     0.000000     0.000000     0.000000
   12    -1.000000    90.000000     1.000000     0.000000     0.000000     0.000000     0.000000     0.000000
   13     1.000000   180.000000     0.000000     1.000000     0.000000     0.000000     0.000000     0.000000
   14    -1.000000   180.000000     0.000000     1.000000     0.000000     0.000000     0.000000     0.000000
   15     1.000000   120.000000     0.577350     0.577350    -0.577350     0.000000     0.000000     0.000000
   16    -1.000000   120.000000     0.577350     0.577350    -0.577350     0.000000     0.000000     0.000000
   17     1.000000   120.000000     0.577350    -0.577350    -0.577350     0.000000     0.000000     0.000000
   18    -1.000000   120.000000     0.577350    -0.577350    -0.577350     0.000000     0.000000     0.000000
   19     1.000000    90.000000     0.000000     1.000000     0.000000     0.000000     0.000000     0.000000
   20    -1.000000    90.000000     0.000000     1.000000     0.000000     0.000000     0.000000     0.000000
   21     1.000000    90.000000     0.000000     0.000000    -1.000000     0.000000     0.000000     0.000000
   22    -1.000000    90.000000     0.000000     0.000000    -1.000000     0.000000     0.000000     0.000000
   23     1.000000   180.000000     0.000000     0.707107     0.707107     0.000000     0.000000     0.000000
   24    -1.000000   180.000000     0.000000     0.707107     0.707107     0.000000     0.000000     0.000000
   25     1.000000   120.000000    -0.577350     0.577350     0.577350     0.000000     0.000000     0.000000
   26    -1.000000   120.000000    -0.577350     0.577350     0.577350     0.000000     0.000000     0.000000
   27     1.000000   120.000000    -0.577350     0.577350    -0.577350     0.000000     0.000000     0.000000
   28    -1.000000   120.000000    -0.577350     0.577350    -0.577350     0.000000     0.000000     0.000000
   29     1.000000   180.000000     0.000000     0.000000     1.000000     0.000000     0.000000     0.000000
   30    -1.000000   180.000000     0.000000     0.000000     1.000000     0.000000     0.000000     0.000000
   31     1.000000    90.000000    -1.000000     0.000000     0.000000     0.000000     0.000000     0.000000
   32    -1.000000    90.000000    -1.000000     0.000000     0.000000     0.000000     0.000000     0.000000
   33     1.000000   180.000000     0.707107     0.000000     0.707107     0.000000     0.000000     0.000000
   34    -1.000000   180.000000     0.707107     0.000000     0.707107     0.000000     0.000000     0.000000
   35     1.000000    90.000000     0.000000     0.000000     1.000000     0.000000     0.000000     0.000000
   36    -1.000000    90.000000     0.000000     0.000000     1.000000     0.000000     0.000000     0.000000
   37     1.000000   120.000000    -0.577350    -0.577350     0.577350     0.000000     0.000000     0.000000
   38    -1.000000   120.000000    -0.577350    -0.577350     0.577350     0.000000     0.000000     0.000000
   39     1.000000   180.000000     1.000000     0.000000     0.000000     0.000000     0.000000     0.000000
   40    -1.000000   180.000000     1.000000     0.000000     0.000000     0.000000     0.000000     0.000000
   41     1.000000   120.000000     0.577350    -0.577350     0.577350     0.000000     0.000000     0.000000
   42    -1.000000   120.000000     0.577350    -0.577350     0.577350     0.000000     0.000000     0.000000
   43     1.000000   180.000000     0.707107    -0.707107     0.000000     0.000000     0.000000     0.000000
   44    -1.000000   180.000000     0.707107    -0.707107     0.000000     0.000000     0.000000     0.000000
   45     1.000000   180.000000     0.707107     0.000000    -0.707107     0.000000     0.000000     0.000000
   46    -1.000000   180.000000     0.707107     0.000000    -0.707107     0.000000     0.000000     0.000000
   47     1.000000   180.000000     0.000000    -0.707107     0.707107     0.000000     0.000000     0.000000
   48    -1.000000   180.000000     0.000000    -0.707107     0.707107     0.000000     0.000000     0.000000
 
 Subroutine IBZKPT returns following result:
 ===========================================
 
 Found   1771 irreducible k-points:
 
 Following reciprocal coordinates:
            Coordinates               Weight
  0.000000  0.000000  0.000000      1.000000
  0.024390  0.000000  0.000000      8.000000
  0.048780  0.000000  0.000000      8.000000
  0.073171  0.000000  0.000000      8.000000
  0.097561  0.000000  0.000000      8.000000
  0.121951  0.000000  0.000000      8.000000
  0.146341  0.000000  0.000000      8.000000
  0.170732  0.000000  0.000000      8.000000
  0.195122  0.000000  0.000000      8.000000
  0.219512  0.000000  0.000000      8.000000
  0.243902  0.000000  0.000000      8.000000
  0.268293  0.000000  0.000000      8.000000
  0.292683  0.000000  0.000000      8.000000
  0.317073  0.000000  0.000000      8.000000
  0.341463  0.000000  0.000000      8.000000
  0.365854  0.000000  0.000000      8.000000
  0.390244  0.000000  0.000000      8.000000
  0.414634  0.000000  0.000000      8.000000
  0.439024  0.000000  0.000000      8.000000
  0.463415  0.000000  0.000000      8.000000
  0.487805  0.000000  0.000000      8.000000
  0.024390  0.024390  0.000000      6.000000
  0.048780  0.024390  0.000000     24.000000
  0.073171  0.024390  0.000000     24.000000
  0.097561  0.024390  0.000000     24.000000
  0.121951  0.024390  0.000000     24.000000
  0.146341  0.024390  0.000000     24.000000
  0.170732  0.024390  0.000000     24.000000
  0.195122  0.024390  0.000000     24.000000
  0.219512  0.024390  0.000000     24.000000
  0.243902  0.024390  0.000000     24.000000
  0.268293  0.024390  0.000000     24.000000
  0.292683  0.024390  0.000000     24.000000
  0.317073  0.024390  0.000000     24.000000
  0.341463  0.024390  0.000000     24.000000
  0.365854  0.024390  0.000000     24.000000
  0.390244  0.024390  0.000000     24.000000
  0.414634  0.024390  0.000000     24.000000
  0.439024  0.024390  0.000000     24.000000
  0.463415  0.024390  0.000000     24.000000
  0.487805  0.024390  0.000000     24.000000
 -0.487805  0.024390  0.000000     24.000000
 -0.463415  0.024390  0.000000     24.000000
 -0.439024  0.024390  0.000000     24.000000
 -0.414634  0.024390  0.000000     24.000000
 -0.390244  0.024390  0.000000     24.000000
 -0.365854  0.024390  0.000000     24.000000
 -0.341463  0.024390  0.000000     24.000000
 -0.317073  0.024390  0.000000     24.000000
 -0.292683  0.024390  0.000000     24.000000
 -0.268293  0.024390  0.000000     24.000000
 -0.243902  0.024390  0.000000     24.000000
 -0.219512  0.024390  0.000000     24.000000
 -0.195122  0.024390  0.000000     24.000000
 -0.170732  0.024390  0.000000     24.000000
 -0.146341  0.024390  0.000000     24.000000
 -0.121951  0.024390  0.000000     24.000000
 -0.097561  0.024390  0.000000     24.000000
 -0.073171  0.024390  0.000000     24.000000
 -0.048780  0.024390  0.000000     24.000000
 -0.024390  0.024390  0.000000     12.000000
  0.048780  0.048780  0.000000      6.000000
  0.073171  0.048780  0.000000     24.000000
  0.097561  0.048780  0.000000     24.000000
  0.121951  0.048780  0.000000     24.000000
  0.146341  0.048780  0.000000     24.000000
  0.170732  0.048780  0.000000     24.000000
  0.195122  0.048780  0.000000     24.000000
  0.219512  0.048780  0.000000     24.000000
  0.243902  0.048780  0.000000     24.000000
  0.268293  0.048780  0.000000     24.000000
  0.292683  0.048780  0.000000     24.000000
  0.317073  0.048780  0.000000     24.000000
  0.341463  0.048780  0.000000     24.000000
  0.365854  0.048780  0.000000     24.000000
  0.390244  0.048780  0.000000     24.000000
  0.414634  0.048780  0.000000     24.000000
  0.439024  0.048780  0.000000     24.000000
  0.463415  0.048780  0.000000     24.000000
  0.487805  0.048780  0.000000     24.000000
 -0.487805  0.048780  0.000000     24.000000
 -0.463415  0.048780  0.000000     24.000000
 -0.439024  0.048780  0.000000     24.000000
 -0.414634  0.048780  0.000000     24.000000
 -0.390244  0.048780  0.000000     24.000000
 -0.365854  0.048780  0.000000     24.000000
 -0.341463  0.048780  0.000000     24.000000
 -0.317073  0.048780  0.000000     24.000000
 -0.292683  0.048780  0.000000     24.000000
 -0.268293  0.048780  0.000000     24.000000
 -0.243902  0.048780  0.000000     24.000000
 -0.219512  0.048780  0.000000     24.000000
 -0.195122  0.048780  0.000000     24.000000
 -0.170732  0.048780  0.000000     24.000000
 -0.146341  0.048780  0.000000     24.000000
 -0.121951  0.048780  0.000000     24.000000
 -0.097561  0.048780  0.000000     24.000000
 -0.073171  0.048780  0.000000     24.000000
 -0.048780  0.048780  0.000000     12.000000
  0.073171  0.073171  0.000000      6.000000
  0.097561  0.073171  0.000000     24.000000
  0.121951  0.073171  0.000000     24.000000
  0.146341  0.073171  0.000000     24.000000
  0.170732  0.073171  0.000000     24.000000
  0.195122  0.073171  0.000000     24.000000
  0.219512  0.073171  0.000000     24.000000
  0.243902  0.073171  0.000000     24.000000
  0.268293  0.073171  0.000000     24.000000
  0.292683  0.073171  0.000000     24.000000
  0.317073  0.073171  0.000000     24.000000
  0.341463  0.073171  0.000000     24.000000
  0.365854  0.073171  0.000000     24.000000
  0.390244  0.073171  0.000000     24.000000
  0.414634  0.073171  0.000000     24.000000
  0.439024  0.073171  0.000000     24.000000
  0.463415  0.073171  0.000000     24.000000
  0.487805  0.073171  0.000000     24.000000
 -0.487805  0.073171  0.000000     24.000000
 -0.463415  0.073171  0.000000     24.000000
 -0.439024  0.073171  0.000000     24.000000
 -0.414634  0.073171  0.000000     24.000000
 -0.390244  0.073171  0.000000     24.000000
 -0.365854  0.073171  0.000000     24.000000
 -0.341463  0.073171  0.000000     24.000000
 -0.317073  0.073171  0.000000     24.000000
 -0.292683  0.073171  0.000000     24.000000
 -0.268293  0.073171  0.000000     24.000000
 -0.243902  0.073171  0.000000     24.000000
 -0.219512  0.073171  0.000000     24.000000
 -0.195122  0.073171  0.000000     24.000000
 -0.170732  0.073171  0.000000     24.000000
 -0.146341  0.073171  0.000000     24.000000
 -0.121951  0.073171  0.000000     24.000000
 -0.097561  0.073171  0.000000     24.000000
 -0.073171  0.073171  0.000000     12.000000
  0.097561  0.097561  0.000000      6.000000
  0.121951  0.097561  0.000000     24.000000
  0.146341  0.097561  0.000000     24.000000
  0.170732  0.097561  0.000000     24.000000
  0.195122  0.097561  0.000000     24.000000
  0.219512  0.097561  0.000000     24.000000
  0.243902  0.097561  0.000000     24.000000
  0.268293  0.097561  0.000000     24.000000
  0.292683  0.097561  0.000000     24.000000
  0.317073  0.097561  0.000000     24.000000
  0.341463  0.097561  0.000000     24.000000
  0.365854  0.097561  0.000000     24.000000
  0.390244  0.097561  0.000000     24.000000
  0.414634  0.097561  0.000000     24.000000
  0.439024  0.097561  0.000000     24.000000
  0.463415  0.097561  0.000000     24.000000
  0.487805  0.097561  0.000000     24.000000
 -0.487805  0.097561  0.000000     24.000000
 -0.463415  0.097561  0.000000     24.000000
 -0.439024  0.097561  0.000000     24.000000
 -0.414634  0.097561  0.000000     24.000000
 -0.390244  0.097561  0.000000     24.000000
 -0.365854  0.097561  0.000000     24.000000
 -0.341463  0.097561  0.000000     24.000000
 -0.317073  0.097561  0.000000     24.000000
 -0.292683  0.097561  0.000000     24.000000
 -0.268293  0.097561  0.000000     24.000000
 -0.243902  0.097561  0.000000     24.000000
 -0.219512  0.097561  0.000000     24.000000
 -0.195122  0.097561  0.000000     24.000000
 -0.170732  0.097561  0.000000     24.000000
 -0.146341  0.097561  0.000000     24.000000
 -0.121951  0.097561  0.000000     24.000000
 -0.097561  0.097561  0.000000     12.000000
  0.121951  0.121951  0.000000      6.000000
  0.146341  0.121951  0.000000     24.000000
  0.170732  0.121951  0.000000     24.000000
  0.195122  0.121951  0.000000     24.000000
  0.219512  0.121951  0.000000     24.000000
  0.243902  0.121951  0.000000     24.000000
  0.268293  0.121951  0.000000     24.000000
  0.292683  0.121951  0.000000     24.000000
  0.317073  0.121951  0.000000     24.000000
  0.341463  0.121951  0.000000     24.000000
  0.365854  0.121951  0.000000     24.000000
  0.390244  0.121951  0.000000     24.000000
  0.414634  0.121951  0.000000     24.000000
  0.439024  0.121951  0.000000     24.000000
  0.463415  0.121951  0.000000     24.000000
  0.487805  0.121951  0.000000     24.000000
 -0.487805  0.121951  0.000000     24.000000
 -0.463415  0.121951  0.000000     24.000000
 -0.439024  0.121951  0.000000     24.000000
 -0.414634  0.121951  0.000000     24.000000
 -0.390244  0.121951  0.000000     24.000000
 -0.365854  0.121951  0.000000     24.000000
 -0.341463  0.121951  0.000000     24.000000
 -0.317073  0.121951  0.000000     24.000000
 -0.292683  0.121951  0.000000     24.000000
 -0.268293  0.121951  0.000000     24.000000
 -0.243902  0.121951  0.000000     24.000000
 -0.219512  0.121951  0.000000     24.000000
 -0.195122  0.121951  0.000000     24.000000
 -0.170732  0.121951  0.000000     24.000000
 -0.146341  0.121951  0.000000     24.000000
 -0.121951  0.121951  0.000000     12.000000
  0.146341  0.146341  0.000000      6.000000
  0.170732  0.146341  0.000000     24.000000
  0.195122  0.146341  0.000000     24.000000
  0.219512  0.146341  0.000000     24.000000
  0.243902  0.146341  0.000000     24.000000
  0.268293  0.146341  0.000000     24.000000
  0.292683  0.146341  0.000000     24.000000
  0.317073  0.146341  0.000000     24.000000
  0.341463  0.146341  0.000000     24.000000
  0.365854  0.146341  0.000000     24.000000
  0.390244  0.146341  0.000000     24.000000
  0.414634  0.146341  0.000000     24.000000
  0.439024  0.146341  0.000000     24.000000
  0.463415  0.146341  0.000000     24.000000
  0.487805  0.146341  0.000000     24.000000
 -0.487805  0.146341  0.000000     24.000000
 -0.463415  0.146341  0.000000     24.000000
 -0.439024  0.146341  0.000000     24.000000
 -0.414634  0.146341  0.000000     24.000000
 -0.390244  0.146341  0.000000     24.000000
 -0.365854  0.146341  0.000000     24.000000
 -0.341463  0.146341  0.000000     24.000000
 -0.317073  0.146341  0.000000     24.000000
 -0.292683  0.146341  0.000000     24.000000
 -0.268293  0.146341  0.000000     24.000000
 -0.243902  0.146341  0.000000     24.000000
 -0.219512  0.146341  0.000000     24.000000
 -0.195122  0.146341  0.000000     24.000000
 -0.170732  0.146341  0.000000     24.000000
 -0.146341  0.146341  0.000000     12.000000
  0.170732  0.170732  0.000000      6.000000
  0.195122  0.170732  0.000000     24.000000
  0.219512  0.170732  0.000000     24.000000
  0.243902  0.170732  0.000000     24.000000
  0.268293  0.170732  0.000000     24.000000
  0.292683  0.170732  0.000000     24.000000
  0.317073  0.170732  0.000000     24.000000
  0.341463  0.170732  0.000000     24.000000
  0.365854  0.170732  0.000000     24.000000
  0.390244  0.170732  0.000000     24.000000
  0.414634  0.170732  0.000000     24.000000
  0.439024  0.170732  0.000000     24.000000
  0.463415  0.170732  0.000000     24.000000
  0.487805  0.170732  0.000000     24.000000
 -0.487805  0.170732  0.000000     24.000000
 -0.463415  0.170732  0.000000     24.000000
 -0.439024  0.170732  0.000000     24.000000
 -0.414634  0.170732  0.000000     24.000000
 -0.390244  0.170732  0.000000     24.000000
 -0.365854  0.170732  0.000000     24.000000
 -0.341463  0.170732  0.000000     24.000000
 -0.317073  0.170732  0.000000     24.000000
 -0.292683  0.170732  0.000000     24.000000
 -0.268293  0.170732  0.000000     24.000000
 -0.243902  0.170732  0.000000     24.000000
 -0.219512  0.170732  0.000000     24.000000
 -0.195122  0.170732  0.000000     24.000000
 -0.170732  0.170732  0.000000     12.000000
  0.195122  0.195122  0.000000      6.000000
  0.219512  0.195122  0.000000     24.000000
  0.243902  0.195122  0.000000     24.000000
  0.268293  0.195122  0.000000     24.000000
  0.292683  0.195122  0.000000     24.000000
  0.317073  0.195122  0.000000     24.000000
  0.341463  0.195122  0.000000     24.000000
  0.365854  0.195122  0.000000     24.000000
  0.390244  0.195122  0.000000     24.000000
  0.414634  0.195122  0.000000     24.000000
  0.439024  0.195122  0.000000     24.000000
  0.463415  0.195122  0.000000     24.000000
  0.487805  0.195122  0.000000     24.000000
 -0.487805  0.195122  0.000000     24.000000
 -0.463415  0.195122  0.000000     24.000000
 -0.439024  0.195122  0.000000     24.000000
 -0.414634  0.195122  0.000000     24.000000
 -0.390244  0.195122  0.000000     24.000000
 -0.365854  0.195122  0.000000     24.000000
 -0.341463  0.195122  0.000000     24.000000
 -0.317073  0.195122  0.000000     24.000000
 -0.292683  0.195122  0.000000     24.000000
 -0.268293  0.195122  0.000000     24.000000
 -0.243902  0.195122  0.000000     24.000000
 -0.219512  0.195122  0.000000     24.000000
 -0.195122  0.195122  0.000000     12.000000
  0.219512  0.219512  0.000000      6.000000
  0.243902  0.219512  0.000000     24.000000
  0.268293  0.219512  0.000000     24.000000
  0.292683  0.219512  0.000000     24.000000
  0.317073  0.219512  0.000000     24.000000
  0.341463  0.219512  0.000000     24.000000
  0.365854  0.219512  0.000000     24.000000
  0.390244  0.219512  0.000000     24.000000
  0.414634  0.219512  0.000000     24.000000
  0.439024  0.219512  0.000000     24.000000
  0.463415  0.219512  0.000000     24.000000
  0.487805  0.219512  0.000000     24.000000
 -0.487805  0.219512  0.000000     24.000000
 -0.463415  0.219512  0.000000     24.000000
 -0.439024  0.219512  0.000000     24.000000
 -0.414634  0.219512  0.000000     24.000000
 -0.390244  0.219512  0.000000     24.000000
 -0.365854  0.219512  0.000000     24.000000
 -0.341463  0.219512  0.000000     24.000000
 -0.317073  0.219512  0.000000     24.000000
 -0.292683  0.219512  0.000000     24.000000
 -0.268293  0.219512  0.000000     24.000000
 -0.243902  0.219512  0.000000     24.000000
 -0.219512  0.219512  0.000000     12.000000
  0.243902  0.243902  0.000000      6.000000
  0.268293  0.243902  0.000000     24.000000
  0.292683  0.243902  0.000000     24.000000
  0.317073  0.243902  0.000000     24.000000
  0.341463  0.243902  0.000000     24.000000
  0.365854  0.243902  0.000000     24.000000
  0.390244  0.243902  0.000000     24.000000
  0.414634  0.243902  0.000000     24.000000
  0.439024  0.243902  0.000000     24.000000
  0.463415  0.243902  0.000000     24.000000
  0.487805  0.243902  0.000000     24.000000
 -0.487805  0.243902  0.000000     24.000000
 -0.463415  0.243902  0.000000     24.000000
 -0.439024  0.243902  0.000000     24.000000
 -0.414634  0.243902  0.000000     24.000000
 -0.390244  0.243902  0.000000     24.000000
 -0.365854  0.243902  0.000000     24.000000
 -0.341463  0.243902  0.000000     24.000000
 -0.317073  0.243902  0.000000     24.000000
 -0.292683  0.243902  0.000000     24.000000
 -0.268293  0.243902  0.000000     24.000000
 -0.243902  0.243902  0.000000     12.000000
  0.268293  0.268293  0.000000      6.000000
  0.292683  0.268293  0.000000     24.000000
  0.317073  0.268293  0.000000     24.000000
  0.341463  0.268293  0.000000     24.000000
  0.365854  0.268293  0.000000     24.000000
  0.390244  0.268293  0.000000     24.000000
  0.414634  0.268293  0.000000     24.000000
  0.439024  0.268293  0.000000     24.000000
  0.463415  0.268293  0.000000     24.000000
  0.487805  0.268293  0.000000     24.000000
 -0.487805  0.268293  0.000000     24.000000
 -0.463415  0.268293  0.000000     24.000000
 -0.439024  0.268293  0.000000     24.000000
 -0.414634  0.268293  0.000000     24.000000
 -0.390244  0.268293  0.000000     24.000000
 -0.365854  0.268293  0.000000     24.000000
 -0.341463  0.268293  0.000000     24.000000
 -0.317073  0.268293  0.000000     24.000000
 -0.292683  0.268293  0.000000     24.000000
 -0.268293  0.268293  0.000000     12.000000
  0.292683  0.292683  0.000000      6.000000
  0.317073  0.292683  0.000000     24.000000
  0.341463  0.292683  0.000000     24.000000
  0.365854  0.292683  0.000000     24.000000
  0.390244  0.292683  0.000000     24.000000
  0.414634  0.292683  0.000000     24.000000
  0.439024  0.292683  0.000000     24.000000
  0.463415  0.292683  0.000000     24.000000
  0.487805  0.292683  0.000000     24.000000
 -0.487805  0.292683  0.000000     24.000000
 -0.463415  0.292683  0.000000     24.000000
 -0.439024  0.292683  0.000000     24.000000
 -0.414634  0.292683  0.000000     24.000000
 -0.390244  0.292683  0.000000     24.000000
 -0.365854  0.292683  0.000000     24.000000
 -0.341463  0.292683  0.000000     24.000000
 -0.317073  0.292683  0.000000     24.000000
 -0.292683  0.292683  0.000000     12.000000
  0.317073  0.317073  0.000000      6.000000
  0.341463  0.317073  0.000000     24.000000
  0.365854  0.317073  0.000000     24.000000
  0.390244  0.317073  0.000000     24.000000
  0.414634  0.317073  0.000000     24.000000
  0.439024  0.317073  0.000000     24.000000
  0.463415  0.317073  0.000000     24.000000
  0.487805  0.317073  0.000000     24.000000
 -0.487805  0.317073  0.000000     24.000000
 -0.463415  0.317073  0.000000     24.000000
 -0.439024  0.317073  0.000000     24.000000
 -0.414634  0.317073  0.000000     24.000000
 -0.390244  0.317073  0.000000     24.000000
 -0.365854  0.317073  0.000000     24.000000
 -0.341463  0.317073  0.000000     24.000000
 -0.317073  0.317073  0.000000     12.000000
  0.341463  0.341463  0.000000      6.000000
  0.365854  0.341463  0.000000     24.000000
  0.390244  0.341463  0.000000     24.000000
  0.414634  0.341463  0.000000     24.000000
  0.439024  0.341463  0.000000     24.000000
  0.463415  0.341463  0.000000     24.000000
  0.487805  0.341463  0.000000     24.000000
 -0.487805  0.341463  0.000000     24.000000
 -0.463415  0.341463  0.000000     24.000000
 -0.439024  0.341463  0.000000     24.000000
 -0.414634  0.341463  0.000000     24.000000
 -0.390244  0.341463  0.000000     24.000000
 -0.365854  0.341463  0.000000     24.000000
 -0.341463  0.341463  0.000000     12.000000
  0.365854  0.365854  0.000000      6.000000
  0.390244  0.365854  0.000000     24.000000
  0.414634  0.365854  0.000000     24.000000
  0.439024  0.365854  0.000000     24.000000
  0.463415  0.365854  0.000000     24.000000
  0.487805  0.365854  0.000000     24.000000
 -0.487805  0.365854  0.000000     24.000000
 -0.463415  0.365854  0.000000     24.000000
 -0.439024  0.365854  0.000000     24.000000
 -0.414634  0.365854  0.000000     24.000000
 -0.390244  0.365854  0.000000     24.000000
 -0.365854  0.365854  0.000000     12.000000
  0.390244  0.390244  0.000000      6.000000
  0.414634  0.390244  0.000000     24.000000
  0.439024  0.390244  0.000000     24.000000
  0.463415  0.390244  0.000000     24.000000
  0.487805  0.390244  0.000000     24.000000
 -0.487805  0.390244  0.000000     24.000000
 -0.463415  0.390244  0.000000     24.000000
 -0.439024  0.390244  0.000000     24.000000
 -0.414634  0.390244  0.000000     24.000000
 -0.390244  0.390244  0.000000     12.000000
  0.414634  0.414634  0.000000      6.000000
  0.439024  0.414634  0.000000     24.000000
  0.463415  0.414634  0.000000     24.000000
  0.487805  0.414634  0.000000     24.000000
 -0.487805  0.414634  0.000000     24.000000
 -0.463415  0.414634  0.000000     24.000000
 -0.439024  0.414634  0.000000     24.000000
 -0.414634  0.414634  0.000000     12.000000
  0.439024  0.439024  0.000000      6.000000
  0.463415  0.439024  0.000000     24.000000
  0.487805  0.439024  0.000000     24.000000
 -0.487805  0.439024  0.000000     24.000000
 -0.463415  0.439024  0.000000     24.000000
 -0.439024  0.439024  0.000000     12.000000
  0.463415  0.463415  0.000000      6.000000
  0.487805  0.463415  0.000000     24.000000
 -0.487805  0.463415  0.000000     24.000000
 -0.463415  0.463415  0.000000     12.000000
  0.487805  0.487805  0.000000      6.000000
 -0.487805  0.487805  0.000000     12.000000
  0.073171  0.048780  0.024390     24.000000
  0.097561  0.048780  0.024390     48.000000
  0.121951  0.048780  0.024390     48.000000
  0.146341  0.048780  0.024390     48.000000
  0.170732  0.048780  0.024390     48.000000
  0.195122  0.048780  0.024390     48.000000
  0.219512  0.048780  0.024390     48.000000
  0.243902  0.048780  0.024390     48.000000
  0.268293  0.048780  0.024390     48.000000
  0.292683  0.048780  0.024390     48.000000
  0.317073  0.048780  0.024390     48.000000
  0.341463  0.048780  0.024390     48.000000
  0.365854  0.048780  0.024390     48.000000
  0.390244  0.048780  0.024390     48.000000
  0.414634  0.048780  0.024390     48.000000
  0.439024  0.048780  0.024390     48.000000
  0.463415  0.048780  0.024390     48.000000
  0.487805  0.048780  0.024390     48.000000
 -0.487805  0.048780  0.024390     48.000000
  0.097561  0.073171  0.024390     24.000000
  0.121951  0.073171  0.024390     48.000000
  0.146341  0.073171  0.024390     48.000000
  0.170732  0.073171  0.024390     48.000000
  0.195122  0.073171  0.024390     48.000000
  0.219512  0.073171  0.024390     48.000000
  0.243902  0.073171  0.024390     48.000000
  0.268293  0.073171  0.024390     48.000000
  0.292683  0.073171  0.024390     48.000000
  0.317073  0.073171  0.024390     48.000000
  0.341463  0.073171  0.024390     48.000000
  0.365854  0.073171  0.024390     48.000000
  0.390244  0.073171  0.024390     48.000000
  0.414634  0.073171  0.024390     48.000000
  0.439024  0.073171  0.024390     48.000000
  0.463415  0.073171  0.024390     48.000000
  0.487805  0.073171  0.024390     48.000000
 -0.487805  0.073171  0.024390     48.000000
 -0.463415  0.073171  0.024390     48.000000
 -0.439024  0.073171  0.024390     48.000000
 -0.414634  0.073171  0.024390     48.000000
 -0.390244  0.073171  0.024390     48.000000
 -0.365854  0.073171  0.024390     48.000000
 -0.341463  0.073171  0.024390     48.000000
 -0.317073  0.073171  0.024390     48.000000
 -0.292683  0.073171  0.024390     48.000000
 -0.268293  0.073171  0.024390     48.000000
 -0.243902  0.073171  0.024390     48.000000
 -0.219512  0.073171  0.024390     48.000000
 -0.195122  0.073171  0.024390     48.000000
 -0.170732  0.073171  0.024390     48.000000
 -0.146341  0.073171  0.024390     48.000000
 -0.121951  0.073171  0.024390     48.000000
 -0.097561  0.073171  0.024390     48.000000
 -0.073171  0.073171  0.024390     48.000000
 -0.048780  0.073171  0.024390     24.000000
  0.121951  0.097561  0.024390     24.000000
  0.146341  0.097561  0.024390     48.000000
  0.170732  0.097561  0.024390     48.000000
  0.195122  0.097561  0.024390     48.000000
  0.219512  0.097561  0.024390     48.000000
  0.243902  0.097561  0.024390     48.000000
  0.268293  0.097561  0.024390     48.000000
  0.292683  0.097561  0.024390     48.000000
  0.317073  0.097561  0.024390     48.000000
  0.341463  0.097561  0.024390     48.000000
  0.365854  0.097561  0.024390     48.000000
  0.390244  0.097561  0.024390     48.000000
  0.414634  0.097561  0.024390     48.000000
  0.439024  0.097561  0.024390     48.000000
  0.463415  0.097561  0.024390     48.000000
  0.487805  0.097561  0.024390     48.000000
 -0.487805  0.097561  0.024390     48.000000
 -0.463415  0.097561  0.024390     48.000000
 -0.439024  0.097561  0.024390     48.000000
 -0.414634  0.097561  0.024390     48.000000
 -0.390244  0.097561  0.024390     48.000000
 -0.365854  0.097561  0.024390     48.000000
 -0.341463  0.097561  0.024390     48.000000
 -0.317073  0.097561  0.024390     48.000000
 -0.292683  0.097561  0.024390     48.000000
 -0.268293  0.097561  0.024390     48.000000
 -0.243902  0.097561  0.024390     48.000000
 -0.219512  0.097561  0.024390     48.000000
 -0.195122  0.097561  0.024390     48.000000
 -0.170732  0.097561  0.024390     48.000000
 -0.146341  0.097561  0.024390     48.000000
 -0.121951  0.097561  0.024390     48.000000
 -0.097561  0.097561  0.024390     48.000000
 -0.073171  0.097561  0.024390     24.000000
  0.146341  0.121951  0.024390     24.000000
  0.170732  0.121951  0.024390     48.000000
  0.195122  0.121951  0.024390     48.000000
  0.219512  0.121951  0.024390     48.000000
  0.243902  0.121951  0.024390     48.000000
  0.268293  0.121951  0.024390     48.000000
  0.292683  0.121951  0.024390     48.000000
  0.317073  0.121951  0.024390     48.000000
  0.341463  0.121951  0.024390     48.000000
  0.365854  0.121951  0.024390     48.000000
  0.390244  0.121951  0.024390     48.000000
  0.414634  0.121951  0.024390     48.000000
  0.439024  0.121951  0.024390     48.000000
  0.463415  0.121951  0.024390     48.000000
  0.487805  0.121951  0.024390     48.000000
 -0.487805  0.121951  0.024390     48.000000
 -0.463415  0.121951  0.024390     48.000000
 -0.439024  0.121951  0.024390     48.000000
 -0.414634  0.121951  0.024390     48.000000
 -0.390244  0.121951  0.024390     48.000000
 -0.365854  0.121951  0.024390     48.000000
 -0.341463  0.121951  0.024390     48.000000
 -0.317073  0.121951  0.024390     48.000000
 -0.292683  0.121951  0.024390     48.000000
 -0.268293  0.121951  0.024390     48.000000
 -0.243902  0.121951  0.024390     48.000000
 -0.219512  0.121951  0.024390     48.000000
 -0.195122  0.121951  0.024390     48.000000
 -0.170732  0.121951  0.024390     48.000000
 -0.146341  0.121951  0.024390     48.000000
 -0.121951  0.121951  0.024390     48.000000
 -0.097561  0.121951  0.024390     24.000000
  0.170732  0.146341  0.024390     24.000000
  0.195122  0.146341  0.024390     48.000000
  0.219512  0.146341  0.024390     48.000000
  0.243902  0.146341  0.024390     48.000000
  0.268293  0.146341  0.024390     48.000000
  0.292683  0.146341  0.024390     48.000000
  0.317073  0.146341  0.024390     48.000000
  0.341463  0.146341  0.024390     48.000000
  0.365854  0.146341  0.024390     48.000000
  0.390244  0.146341  0.024390     48.000000
  0.414634  0.146341  0.024390     48.000000
  0.439024  0.146341  0.024390     48.000000
  0.463415  0.146341  0.024390     48.000000
  0.487805  0.146341  0.024390     48.000000
 -0.487805  0.146341  0.024390     48.000000
 -0.463415  0.146341  0.024390     48.000000
 -0.439024  0.146341  0.024390     48.000000
 -0.414634  0.146341  0.024390     48.000000
 -0.390244  0.146341  0.024390     48.000000
 -0.365854  0.146341  0.024390     48.000000
 -0.341463  0.146341  0.024390     48.000000
 -0.317073  0.146341  0.024390     48.000000
 -0.292683  0.146341  0.024390     48.000000
 -0.268293  0.146341  0.024390     48.000000
 -0.243902  0.146341  0.024390     48.000000
 -0.219512  0.146341  0.024390     48.000000
 -0.195122  0.146341  0.024390     48.000000
 -0.170732  0.146341  0.024390     48.000000
 -0.146341  0.146341  0.024390     48.000000
 -0.121951  0.146341  0.024390     24.000000
  0.195122  0.170732  0.024390     24.000000
  0.219512  0.170732  0.024390     48.000000
  0.243902  0.170732  0.024390     48.000000
  0.268293  0.170732  0.024390     48.000000
  0.292683  0.170732  0.024390     48.000000
  0.317073  0.170732  0.024390     48.000000
  0.341463  0.170732  0.024390     48.000000
  0.365854  0.170732  0.024390     48.000000
  0.390244  0.170732  0.024390     48.000000
  0.414634  0.170732  0.024390     48.000000
  0.439024  0.170732  0.024390     48.000000
  0.463415  0.170732  0.024390     48.000000
  0.487805  0.170732  0.024390     48.000000
 -0.487805  0.170732  0.024390     48.000000
 -0.463415  0.170732  0.024390     48.000000
 -0.439024  0.170732  0.024390     48.000000
 -0.414634  0.170732  0.024390     48.000000
 -0.390244  0.170732  0.024390     48.000000
 -0.365854  0.170732  0.024390     48.000000
 -0.341463  0.170732  0.024390     48.000000
 -0.317073  0.170732  0.024390     48.000000
 -0.292683  0.170732  0.024390     48.000000
 -0.268293  0.170732  0.024390     48.000000
 -0.243902  0.170732  0.024390     48.000000
 -0.219512  0.170732  0.024390     48.000000
 -0.195122  0.170732  0.024390     48.000000
 -0.170732  0.170732  0.024390     48.000000
 -0.146341  0.170732  0.024390     24.000000
  0.219512  0.195122  0.024390     24.000000
  0.243902  0.195122  0.024390     48.000000
  0.268293  0.195122  0.024390     48.000000
  0.292683  0.195122  0.024390     48.000000
  0.317073  0.195122  0.024390     48.000000
  0.341463  0.195122  0.024390     48.000000
  0.365854  0.195122  0.024390     48.000000
  0.390244  0.195122  0.024390     48.000000
  0.414634  0.195122  0.024390     48.000000
  0.439024  0.195122  0.024390     48.000000
  0.463415  0.195122  0.024390     48.000000
  0.487805  0.195122  0.024390     48.000000
 -0.487805  0.195122  0.024390     48.000000
 -0.463415  0.195122  0.024390     48.000000
 -0.439024  0.195122  0.024390     48.000000
 -0.414634  0.195122  0.024390     48.000000
 -0.390244  0.195122  0.024390     48.000000
 -0.365854  0.195122  0.024390     48.000000
 -0.341463  0.195122  0.024390     48.000000
 -0.317073  0.195122  0.024390     48.000000
 -0.292683  0.195122  0.024390     48.000000
 -0.268293  0.195122  0.024390     48.000000
 -0.243902  0.195122  0.024390     48.000000
 -0.219512  0.195122  0.024390     48.000000
 -0.195122  0.195122  0.024390     48.000000
 -0.170732  0.195122  0.024390     24.000000
  0.243902  0.219512  0.024390     24.000000
  0.268293  0.219512  0.024390     48.000000
  0.292683  0.219512  0.024390     48.000000
  0.317073  0.219512  0.024390     48.000000
  0.341463  0.219512  0.024390     48.000000
  0.365854  0.219512  0.024390     48.000000
  0.390244  0.219512  0.024390     48.000000
  0.414634  0.219512  0.024390     48.000000
  0.439024  0.219512  0.024390     48.000000
  0.463415  0.219512  0.024390     48.000000
  0.487805  0.219512  0.024390     48.000000
 -0.487805  0.219512  0.024390     48.000000
 -0.463415  0.219512  0.024390     48.000000
 -0.439024  0.219512  0.024390     48.000000
 -0.414634  0.219512  0.024390     48.000000
 -0.390244  0.219512  0.024390     48.000000
 -0.365854  0.219512  0.024390     48.000000
 -0.341463  0.219512  0.024390     48.000000
 -0.317073  0.219512  0.024390     48.000000
 -0.292683  0.219512  0.024390     48.000000
 -0.268293  0.219512  0.024390     48.000000
 -0.243902  0.219512  0.024390     48.000000
 -0.219512  0.219512  0.024390     48.000000
 -0.195122  0.219512  0.024390     24.000000
  0.268293  0.243902  0.024390     24.000000
  0.292683  0.243902  0.024390     48.000000
  0.317073  0.243902  0.024390     48.000000
  0.341463  0.243902  0.024390     48.000000
  0.365854  0.243902  0.024390     48.000000
  0.390244  0.243902  0.024390     48.000000
  0.414634  0.243902  0.024390     48.000000
  0.439024  0.243902  0.024390     48.000000
  0.463415  0.243902  0.024390     48.000000
  0.487805  0.243902  0.024390     48.000000
 -0.487805  0.243902  0.024390     48.000000
 -0.463415  0.243902  0.024390     48.000000
 -0.439024  0.243902  0.024390     48.000000
 -0.414634  0.243902  0.024390     48.000000
 -0.390244  0.243902  0.024390     48.000000
 -0.365854  0.243902  0.024390     48.000000
 -0.341463  0.243902  0.024390     48.000000
 -0.317073  0.243902  0.024390     48.000000
 -0.292683  0.243902  0.024390     48.000000
 -0.268293  0.243902  0.024390     48.000000
 -0.243902  0.243902  0.024390     48.000000
 -0.219512  0.243902  0.024390     24.000000
  0.292683  0.268293  0.024390     24.000000
  0.317073  0.268293  0.024390     48.000000
  0.341463  0.268293  0.024390     48.000000
  0.365854  0.268293  0.024390     48.000000
  0.390244  0.268293  0.024390     48.000000
  0.414634  0.268293  0.024390     48.000000
  0.439024  0.268293  0.024390     48.000000
  0.463415  0.268293  0.024390     48.000000
  0.487805  0.268293  0.024390     48.000000
 -0.487805  0.268293  0.024390     48.000000
 -0.463415  0.268293  0.024390     48.000000
 -0.439024  0.268293  0.024390     48.000000
 -0.414634  0.268293  0.024390     48.000000
 -0.390244  0.268293  0.024390     48.000000
 -0.365854  0.268293  0.024390     48.000000
 -0.341463  0.268293  0.024390     48.000000
 -0.317073  0.268293  0.024390     48.000000
 -0.292683  0.268293  0.024390     48.000000
 -0.268293  0.268293  0.024390     48.000000
 -0.243902  0.268293  0.024390     24.000000
  0.317073  0.292683  0.024390     24.000000
  0.341463  0.292683  0.024390     48.000000
  0.365854  0.292683  0.024390     48.000000
  0.390244  0.292683  0.024390     48.000000
  0.414634  0.292683  0.024390     48.000000
  0.439024  0.292683  0.024390     48.000000
  0.463415  0.292683  0.024390     48.000000
  0.487805  0.292683  0.024390     48.000000
 -0.487805  0.292683  0.024390     48.000000
 -0.463415  0.292683  0.024390     48.000000
 -0.439024  0.292683  0.024390     48.000000
 -0.414634  0.292683  0.024390     48.000000
 -0.390244  0.292683  0.024390     48.000000
 -0.365854  0.292683  0.024390     48.000000
 -0.341463  0.292683  0.024390     48.000000
 -0.317073  0.292683  0.024390     48.000000
 -0.292683  0.292683  0.024390     48.000000
 -0.268293  0.292683  0.024390     24.000000
  0.341463  0.317073  0.024390     24.000000
  0.365854  0.317073  0.024390     48.000000
  0.390244  0.317073  0.024390     48.000000
  0.414634  0.317073  0.024390     48.000000
  0.439024  0.317073  0.024390     48.000000
  0.463415  0.317073  0.024390     48.000000
  0.487805  0.317073  0.024390     48.000000
 -0.487805  0.317073  0.024390     48.000000
 -0.463415  0.317073  0.024390     48.000000
 -0.439024  0.317073  0.024390     48.000000
 -0.414634  0.317073  0.024390     48.000000
 -0.390244  0.317073  0.024390     48.000000
 -0.365854  0.317073  0.024390     48.000000
 -0.341463  0.317073  0.024390     48.000000
 -0.317073  0.317073  0.024390     48.000000
 -0.292683  0.317073  0.024390     24.000000
  0.365854  0.341463  0.024390     24.000000
  0.390244  0.341463  0.024390     48.000000
  0.414634  0.341463  0.024390     48.000000
  0.439024  0.341463  0.024390     48.000000
  0.463415  0.341463  0.024390     48.000000
  0.487805  0.341463  0.024390     48.000000
 -0.487805  0.341463  0.024390     48.000000
 -0.463415  0.341463  0.024390     48.000000
 -0.439024  0.341463  0.024390     48.000000
 -0.414634  0.341463  0.024390     48.000000
 -0.390244  0.341463  0.024390     48.000000
 -0.365854  0.341463  0.024390     48.000000
 -0.341463  0.341463  0.024390     48.000000
 -0.317073  0.341463  0.024390     24.000000
  0.390244  0.365854  0.024390     24.000000
  0.414634  0.365854  0.024390     48.000000
  0.439024  0.365854  0.024390     48.000000
  0.463415  0.365854  0.024390     48.000000
  0.487805  0.365854  0.024390     48.000000
 -0.487805  0.365854  0.024390     48.000000
 -0.463415  0.365854  0.024390     48.000000
 -0.439024  0.365854  0.024390     48.000000
 -0.414634  0.365854  0.024390     48.000000
 -0.390244  0.365854  0.024390     48.000000
 -0.365854  0.365854  0.024390     48.000000
 -0.341463  0.365854  0.024390     24.000000
  0.414634  0.390244  0.024390     24.000000
  0.439024  0.390244  0.024390     48.000000
  0.463415  0.390244  0.024390     48.000000
  0.487805  0.390244  0.024390     48.000000
 -0.487805  0.390244  0.024390     48.000000
 -0.463415  0.390244  0.024390     48.000000
 -0.439024  0.390244  0.024390     48.000000
 -0.414634  0.390244  0.024390     48.000000
 -0.390244  0.390244  0.024390     48.000000
 -0.365854  0.390244  0.024390     24.000000
  0.439024  0.414634  0.024390     24.000000
  0.463415  0.414634  0.024390     48.000000
  0.487805  0.414634  0.024390     48.000000
 -0.487805  0.414634  0.024390     48.000000
 -0.463415  0.414634  0.024390     48.000000
 -0.439024  0.414634  0.024390     48.000000
 -0.414634  0.414634  0.024390     48.000000
 -0.390244  0.414634  0.024390     24.000000
  0.463415  0.439024  0.024390     24.000000
  0.487805  0.439024  0.024390     48.000000
 -0.487805  0.439024  0.024390     48.000000
 -0.463415  0.439024  0.024390     48.000000
 -0.439024  0.439024  0.024390     48.000000
 -0.414634  0.439024  0.024390     24.000000
  0.487805  0.463415  0.024390     24.000000
 -0.487805  0.463415  0.024390     48.000000
 -0.463415  0.463415  0.024390     48.000000
 -0.439024  0.463415  0.024390     24.000000
 -0.487805  0.487805  0.024390     24.000000
 -0.463415  0.487805  0.024390     24.000000
  0.146341  0.097561  0.048780     24.000000
  0.170732  0.097561  0.048780     48.000000
  0.195122  0.097561  0.048780     48.000000
  0.219512  0.097561  0.048780     48.000000
  0.243902  0.097561  0.048780     48.000000
  0.268293  0.097561  0.048780     48.000000
  0.292683  0.097561  0.048780     48.000000
  0.317073  0.097561  0.048780     48.000000
  0.341463  0.097561  0.048780     48.000000
  0.365854  0.097561  0.048780     48.000000
  0.390244  0.097561  0.048780     48.000000
  0.414634  0.097561  0.048780     48.000000
  0.439024  0.097561  0.048780     48.000000
  0.463415  0.097561  0.048780     48.000000
  0.487805  0.097561  0.048780     48.000000
 -0.487805  0.097561  0.048780     48.000000
 -0.463415  0.097561  0.048780     48.000000
  0.170732  0.121951  0.048780     24.000000
  0.195122  0.121951  0.048780     48.000000
  0.219512  0.121951  0.048780     48.000000
  0.243902  0.121951  0.048780     48.000000
  0.268293  0.121951  0.048780     48.000000
  0.292683  0.121951  0.048780     48.000000
  0.317073  0.121951  0.048780     48.000000
  0.341463  0.121951  0.048780     48.000000
  0.365854  0.121951  0.048780     48.000000
  0.390244  0.121951  0.048780     48.000000
  0.414634  0.121951  0.048780     48.000000
  0.439024  0.121951  0.048780     48.000000
  0.463415  0.121951  0.048780     48.000000
  0.487805  0.121951  0.048780     48.000000
 -0.487805  0.121951  0.048780     48.000000
 -0.463415  0.121951  0.048780     48.000000
 -0.439024  0.121951  0.048780     48.000000
 -0.414634  0.121951  0.048780     48.000000
 -0.390244  0.121951  0.048780     48.000000
 -0.365854  0.121951  0.048780     48.000000
 -0.341463  0.121951  0.048780     48.000000
 -0.317073  0.121951  0.048780     48.000000
 -0.292683  0.121951  0.048780     48.000000
 -0.268293  0.121951  0.048780     48.000000
 -0.243902  0.121951  0.048780     48.000000
 -0.219512  0.121951  0.048780     48.000000
 -0.195122  0.121951  0.048780     48.000000
 -0.170732  0.121951  0.048780     48.000000
 -0.146341  0.121951  0.048780     48.000000
 -0.121951  0.121951  0.048780     48.000000
 -0.097561  0.121951  0.048780     48.000000
 -0.073171  0.121951  0.048780     24.000000
  0.195122  0.146341  0.048780     24.000000
  0.219512  0.146341  0.048780     48.000000
  0.243902  0.146341  0.048780     48.000000
  0.268293  0.146341  0.048780     48.000000
  0.292683  0.146341  0.048780     48.000000
  0.317073  0.146341  0.048780     48.000000
  0.341463  0.146341  0.048780     48.000000
  0.365854  0.146341  0.048780     48.000000
  0.390244  0.146341  0.048780     48.000000
  0.414634  0.146341  0.048780     48.000000
  0.439024  0.146341  0.048780     48.000000
  0.463415  0.146341  0.048780     48.000000
  0.487805  0.146341  0.048780     48.000000
 -0.487805  0.146341  0.048780     48.000000
 -0.463415  0.146341  0.048780     48.000000
 -0.439024  0.146341  0.048780     48.000000
 -0.414634  0.146341  0.048780     48.000000
 -0.390244  0.146341  0.048780     48.000000
 -0.365854  0.146341  0.048780     48.000000
 -0.341463  0.146341  0.048780     48.000000
 -0.317073  0.146341  0.048780     48.000000
 -0.292683  0.146341  0.048780     48.000000
 -0.268293  0.146341  0.048780     48.000000
 -0.243902  0.146341  0.048780     48.000000
 -0.219512  0.146341  0.048780     48.000000
 -0.195122  0.146341  0.048780     48.000000
 -0.170732  0.146341  0.048780     48.000000
 -0.146341  0.146341  0.048780     48.000000
 -0.121951  0.146341  0.048780     48.000000
 -0.097561  0.146341  0.048780     24.000000
  0.219512  0.170732  0.048780     24.000000
  0.243902  0.170732  0.048780     48.000000
  0.268293  0.170732  0.048780     48.000000
  0.292683  0.170732  0.048780     48.000000
  0.317073  0.170732  0.048780     48.000000
  0.341463  0.170732  0.048780     48.000000
  0.365854  0.170732  0.048780     48.000000
  0.390244  0.170732  0.048780     48.000000
  0.414634  0.170732  0.048780     48.000000
  0.439024  0.170732  0.048780     48.000000
  0.463415  0.170732  0.048780     48.000000
  0.487805  0.170732  0.048780     48.000000
 -0.487805  0.170732  0.048780     48.000000
 -0.463415  0.170732  0.048780     48.000000
 -0.439024  0.170732  0.048780     48.000000
 -0.414634  0.170732  0.048780     48.000000
 -0.390244  0.170732  0.048780     48.000000
 -0.365854  0.170732  0.048780     48.000000
 -0.341463  0.170732  0.048780     48.000000
 -0.317073  0.170732  0.048780     48.000000
 -0.292683  0.170732  0.048780     48.000000
 -0.268293  0.170732  0.048780     48.000000
 -0.243902  0.170732  0.048780     48.000000
 -0.219512  0.170732  0.048780     48.000000
 -0.195122  0.170732  0.048780     48.000000
 -0.170732  0.170732  0.048780     48.000000
 -0.146341  0.170732  0.048780     48.000000
 -0.121951  0.170732  0.048780     24.000000
  0.243902  0.195122  0.048780     24.000000
  0.268293  0.195122  0.048780     48.000000
  0.292683  0.195122  0.048780     48.000000
  0.317073  0.195122  0.048780     48.000000
  0.341463  0.195122  0.048780     48.000000
  0.365854  0.195122  0.048780     48.000000
  0.390244  0.195122  0.048780     48.000000
  0.414634  0.195122  0.048780     48.000000
  0.439024  0.195122  0.048780     48.000000
  0.463415  0.195122  0.048780     48.000000
  0.487805  0.195122  0.048780     48.000000
 -0.487805  0.195122  0.048780     48.000000
 -0.463415  0.195122  0.048780     48.000000
 -0.439024  0.195122  0.048780     48.000000
 -0.414634  0.195122  0.048780     48.000000
 -0.390244  0.195122  0.048780     48.000000
 -0.365854  0.195122  0.048780     48.000000
 -0.341463  0.195122  0.048780     48.000000
 -0.317073  0.195122  0.048780     48.000000
 -0.292683  0.195122  0.048780     48.000000
 -0.268293  0.195122  0.048780     48.000000
 -0.243902  0.195122  0.048780     48.000000
 -0.219512  0.195122  0.048780     48.000000
 -0.195122  0.195122  0.048780     48.000000
 -0.170732  0.195122  0.048780     48.000000
 -0.146341  0.195122  0.048780     24.000000
  0.268293  0.219512  0.048780     24.000000
  0.292683  0.219512  0.048780     48.000000
  0.317073  0.219512  0.048780     48.000000
  0.341463  0.219512  0.048780     48.000000
  0.365854  0.219512  0.048780     48.000000
  0.390244  0.219512  0.048780     48.000000
  0.414634  0.219512  0.048780     48.000000
  0.439024  0.219512  0.048780     48.000000
  0.463415  0.219512  0.048780     48.000000
  0.487805  0.219512  0.048780     48.000000
 -0.487805  0.219512  0.048780     48.000000
 -0.463415  0.219512  0.048780     48.000000
 -0.439024  0.219512  0.048780     48.000000
 -0.414634  0.219512  0.048780     48.000000
 -0.390244  0.219512  0.048780     48.000000
 -0.365854  0.219512  0.048780     48.000000
 -0.341463  0.219512  0.048780     48.000000
 -0.317073  0.219512  0.048780     48.000000
 -0.292683  0.219512  0.048780     48.000000
 -0.268293  0.219512  0.048780     48.000000
 -0.243902  0.219512  0.048780     48.000000
 -0.219512  0.219512  0.048780     48.000000
 -0.195122  0.219512  0.048780     48.000000
 -0.170732  0.219512  0.048780     24.000000
  0.292683  0.243902  0.048780     24.000000
  0.317073  0.243902  0.048780     48.000000
  0.341463  0.243902  0.048780     48.000000
  0.365854  0.243902  0.048780     48.000000
  0.390244  0.243902  0.048780     48.000000
  0.414634  0.243902  0.048780     48.000000
  0.439024  0.243902  0.048780     48.000000
  0.463415  0.243902  0.048780     48.000000
  0.487805  0.243902  0.048780     48.000000
 -0.487805  0.243902  0.048780     48.000000
 -0.463415  0.243902  0.048780     48.000000
 -0.439024  0.243902  0.048780     48.000000
 -0.414634  0.243902  0.048780     48.000000
 -0.390244  0.243902  0.048780     48.000000
 -0.365854  0.243902  0.048780     48.000000
 -0.341463  0.243902  0.048780     48.000000
 -0.317073  0.243902  0.048780     48.000000
 -0.292683  0.243902  0.048780     48.000000
 -0.268293  0.243902  0.048780     48.000000
 -0.243902  0.243902  0.048780     48.000000
 -0.219512  0.243902  0.048780     48.000000
 -0.195122  0.243902  0.048780     24.000000
  0.317073  0.268293  0.048780     24.000000
  0.341463  0.268293  0.048780     48.000000
  0.365854  0.268293  0.048780     48.000000
  0.390244  0.268293  0.048780     48.000000
  0.414634  0.268293  0.048780     48.000000
  0.439024  0.268293  0.048780     48.000000
  0.463415  0.268293  0.048780     48.000000
  0.487805  0.268293  0.048780     48.000000
 -0.487805  0.268293  0.048780     48.000000
 -0.463415  0.268293  0.048780     48.000000
 -0.439024  0.268293  0.048780     48.000000
 -0.414634  0.268293  0.048780     48.000000
 -0.390244  0.268293  0.048780     48.000000
 -0.365854  0.268293  0.048780     48.000000
 -0.341463  0.268293  0.048780     48.000000
 -0.317073  0.268293  0.048780     48.000000
 -0.292683  0.268293  0.048780     48.000000
 -0.268293  0.268293  0.048780     48.000000
 -0.243902  0.268293  0.048780     48.000000
 -0.219512  0.268293  0.048780     24.000000
  0.341463  0.292683  0.048780     24.000000
  0.365854  0.292683  0.048780     48.000000
  0.390244  0.292683  0.048780     48.000000
  0.414634  0.292683  0.048780     48.000000
  0.439024  0.292683  0.048780     48.000000
  0.463415  0.292683  0.048780     48.000000
  0.487805  0.292683  0.048780     48.000000
 -0.487805  0.292683  0.048780     48.000000
 -0.463415  0.292683  0.048780     48.000000
 -0.439024  0.292683  0.048780     48.000000
 -0.414634  0.292683  0.048780     48.000000
 -0.390244  0.292683  0.048780     48.000000
 -0.365854  0.292683  0.048780     48.000000
 -0.341463  0.292683  0.048780     48.000000
 -0.317073  0.292683  0.048780     48.000000
 -0.292683  0.292683  0.048780     48.000000
 -0.268293  0.292683  0.048780     48.000000
 -0.243902  0.292683  0.048780     24.000000
  0.365854  0.317073  0.048780     24.000000
  0.390244  0.317073  0.048780     48.000000
  0.414634  0.317073  0.048780     48.000000
  0.439024  0.317073  0.048780     48.000000
  0.463415  0.317073  0.048780     48.000000
  0.487805  0.317073  0.048780     48.000000
 -0.487805  0.317073  0.048780     48.000000
 -0.463415  0.317073  0.048780     48.000000
 -0.439024  0.317073  0.048780     48.000000
 -0.414634  0.317073  0.048780     48.000000
 -0.390244  0.317073  0.048780     48.000000
 -0.365854  0.317073  0.048780     48.000000
 -0.341463  0.317073  0.048780     48.000000
 -0.317073  0.317073  0.048780     48.000000
 -0.292683  0.317073  0.048780     48.000000
 -0.268293  0.317073  0.048780     24.000000
  0.390244  0.341463  0.048780     24.000000
  0.414634  0.341463  0.048780     48.000000
  0.439024  0.341463  0.048780     48.000000
  0.463415  0.341463  0.048780     48.000000
  0.487805  0.341463  0.048780     48.000000
 -0.487805  0.341463  0.048780     48.000000
 -0.463415  0.341463  0.048780     48.000000
 -0.439024  0.341463  0.048780     48.000000
 -0.414634  0.341463  0.048780     48.000000
 -0.390244  0.341463  0.048780     48.000000
 -0.365854  0.341463  0.048780     48.000000
 -0.341463  0.341463  0.048780     48.000000
 -0.317073  0.341463  0.048780     48.000000
 -0.292683  0.341463  0.048780     24.000000
  0.414634  0.365854  0.048780     24.000000
  0.439024  0.365854  0.048780     48.000000
  0.463415  0.365854  0.048780     48.000000
  0.487805  0.365854  0.048780     48.000000
 -0.487805  0.365854  0.048780     48.000000
 -0.463415  0.365854  0.048780     48.000000
 -0.439024  0.365854  0.048780     48.000000
 -0.414634  0.365854  0.048780     48.000000
 -0.390244  0.365854  0.048780     48.000000
 -0.365854  0.365854  0.048780     48.000000
 -0.341463  0.365854  0.048780     48.000000
 -0.317073  0.365854  0.048780     24.000000
  0.439024  0.390244  0.048780     24.000000
  0.463415  0.390244  0.048780     48.000000
  0.487805  0.390244  0.048780     48.000000
 -0.487805  0.390244  0.048780     48.000000
 -0.463415  0.390244  0.048780     48.000000
 -0.439024  0.390244  0.048780     48.000000
 -0.414634  0.390244  0.048780     48.000000
 -0.390244  0.390244  0.048780     48.000000
 -0.365854  0.390244  0.048780     48.000000
 -0.341463  0.390244  0.048780     24.000000
  0.463415  0.414634  0.048780     24.000000
  0.487805  0.414634  0.048780     48.000000
 -0.487805  0.414634  0.048780     48.000000
 -0.463415  0.414634  0.048780     48.000000
 -0.439024  0.414634  0.048780     48.000000
 -0.414634  0.414634  0.048780     48.000000
 -0.390244  0.414634  0.048780     48.000000
 -0.365854  0.414634  0.048780     24.000000
  0.487805  0.439024  0.048780     24.000000
 -0.487805  0.439024  0.048780     48.000000
 -0.463415  0.439024  0.048780     48.000000
 -0.439024  0.439024  0.048780     48.000000
 -0.414634  0.439024  0.048780     48.000000
 -0.390244  0.439024  0.048780     24.000000
 -0.487805  0.463415  0.048780     24.000000
 -0.463415  0.463415  0.048780     48.000000
 -0.439024  0.463415  0.048780     48.000000
 -0.414634  0.463415  0.048780     24.000000
 -0.463415  0.487805  0.048780     24.000000
 -0.439024  0.487805  0.048780     24.000000
  0.219512  0.146341  0.073171     24.000000
  0.243902  0.146341  0.073171     48.000000
  0.268293  0.146341  0.073171     48.000000
  0.292683  0.146341  0.073171     48.000000
  0.317073  0.146341  0.073171     48.000000
  0.341463  0.146341  0.073171     48.000000
  0.365854  0.146341  0.073171     48.000000
  0.390244  0.146341  0.073171     48.000000
  0.414634  0.146341  0.073171     48.000000
  0.439024  0.146341  0.073171     48.000000
  0.463415  0.146341  0.073171     48.000000
  0.487805  0.146341  0.073171     48.000000
 -0.487805  0.146341  0.073171     48.000000
 -0.463415  0.146341  0.073171     48.000000
 -0.439024  0.146341  0.073171     48.000000
  0.243902  0.170732  0.073171     24.000000
  0.268293  0.170732  0.073171     48.000000
  0.292683  0.170732  0.073171     48.000000
  0.317073  0.170732  0.073171     48.000000
  0.341463  0.170732  0.073171     48.000000
  0.365854  0.170732  0.073171     48.000000
  0.390244  0.170732  0.073171     48.000000
  0.414634  0.170732  0.073171     48.000000
  0.439024  0.170732  0.073171     48.000000
  0.463415  0.170732  0.073171     48.000000
  0.487805  0.170732  0.073171     48.000000
 -0.487805  0.170732  0.073171     48.000000
 -0.463415  0.170732  0.073171     48.000000
 -0.439024  0.170732  0.073171     48.000000
 -0.414634  0.170732  0.073171     48.000000
 -0.390244  0.170732  0.073171     48.000000
 -0.365854  0.170732  0.073171     48.000000
 -0.341463  0.170732  0.073171     48.000000
 -0.317073  0.170732  0.073171     48.000000
 -0.292683  0.170732  0.073171     48.000000
 -0.268293  0.170732  0.073171     48.000000
 -0.243902  0.170732  0.073171     48.000000
 -0.219512  0.170732  0.073171     48.000000
 -0.195122  0.170732  0.073171     48.000000
 -0.170732  0.170732  0.073171     48.000000
 -0.146341  0.170732  0.073171     48.000000
 -0.121951  0.170732  0.073171     48.000000
 -0.097561  0.170732  0.073171     24.000000
  0.268293  0.195122  0.073171     24.000000
  0.292683  0.195122  0.073171     48.000000
  0.317073  0.195122  0.073171     48.000000
  0.341463  0.195122  0.073171     48.000000
  0.365854  0.195122  0.073171     48.000000
  0.390244  0.195122  0.073171     48.000000
  0.414634  0.195122  0.073171     48.000000
  0.439024  0.195122  0.073171     48.000000
  0.463415  0.195122  0.073171     48.000000
  0.487805  0.195122  0.073171     48.000000
 -0.487805  0.195122  0.073171     48.000000
 -0.463415  0.195122  0.073171     48.000000
 -0.439024  0.195122  0.073171     48.000000
 -0.414634  0.195122  0.073171     48.000000
 -0.390244  0.195122  0.073171     48.000000
 -0.365854  0.195122  0.073171     48.000000
 -0.341463  0.195122  0.073171     48.000000
 -0.317073  0.195122  0.073171     48.000000
 -0.292683  0.195122  0.073171     48.000000
 -0.268293  0.195122  0.073171     48.000000
 -0.243902  0.195122  0.073171     48.000000
 -0.219512  0.195122  0.073171     48.000000
 -0.195122  0.195122  0.073171     48.000000
 -0.170732  0.195122  0.073171     48.000000
 -0.146341  0.195122  0.073171     48.000000
 -0.121951  0.195122  0.073171     24.000000
  0.292683  0.219512  0.073171     24.000000
  0.317073  0.219512  0.073171     48.000000
  0.341463  0.219512  0.073171     48.000000
  0.365854  0.219512  0.073171     48.000000
  0.390244  0.219512  0.073171     48.000000
  0.414634  0.219512  0.073171     48.000000
  0.439024  0.219512  0.073171     48.000000
  0.463415  0.219512  0.073171     48.000000
  0.487805  0.219512  0.073171     48.000000
 -0.487805  0.219512  0.073171     48.000000
 -0.463415  0.219512  0.073171     48.000000
 -0.439024  0.219512  0.073171     48.000000
 -0.414634  0.219512  0.073171     48.000000
 -0.390244  0.219512  0.073171     48.000000
 -0.365854  0.219512  0.073171     48.000000
 -0.341463  0.219512  0.073171     48.000000
 -0.317073  0.219512  0.073171     48.000000
 -0.292683  0.219512  0.073171     48.000000
 -0.268293  0.219512  0.073171     48.000000
 -0.243902  0.219512  0.073171     48.000000
 -0.219512  0.219512  0.073171     48.000000
 -0.195122  0.219512  0.073171     48.000000
 -0.170732  0.219512  0.073171     48.000000
 -0.146341  0.219512  0.073171     24.000000
  0.317073  0.243902  0.073171     24.000000
  0.341463  0.243902  0.073171     48.000000
  0.365854  0.243902  0.073171     48.000000
  0.390244  0.243902  0.073171     48.000000
  0.414634  0.243902  0.073171     48.000000
  0.439024  0.243902  0.073171     48.000000
  0.463415  0.243902  0.073171     48.000000
  0.487805  0.243902  0.073171     48.000000
 -0.487805  0.243902  0.073171     48.000000
 -0.463415  0.243902  0.073171     48.000000
 -0.439024  0.243902  0.073171     48.000000
 -0.414634  0.243902  0.073171     48.000000
 -0.390244  0.243902  0.073171     48.000000
 -0.365854  0.243902  0.073171     48.000000
 -0.341463  0.243902  0.073171     48.000000
 -0.317073  0.243902  0.073171     48.000000
 -0.292683  0.243902  0.073171     48.000000
 -0.268293  0.243902  0.073171     48.000000
 -0.243902  0.243902  0.073171     48.000000
 -0.219512  0.243902  0.073171     48.000000
 -0.195122  0.243902  0.073171     48.000000
 -0.170732  0.243902  0.073171     24.000000
  0.341463  0.268293  0.073171     24.000000
  0.365854  0.268293  0.073171     48.000000
  0.390244  0.268293  0.073171     48.000000
  0.414634  0.268293  0.073171     48.000000
  0.439024  0.268293  0.073171     48.000000
  0.463415  0.268293  0.073171     48.000000
  0.487805  0.268293  0.073171     48.000000
 -0.487805  0.268293  0.073171     48.000000
 -0.463415  0.268293  0.073171     48.000000
 -0.439024  0.268293  0.073171     48.000000
 -0.414634  0.268293  0.073171     48.000000
 -0.390244  0.268293  0.073171     48.000000
 -0.365854  0.268293  0.073171     48.000000
 -0.341463  0.268293  0.073171     48.000000
 -0.317073  0.268293  0.073171     48.000000
 -0.292683  0.268293  0.073171     48.000000
 -0.268293  0.268293  0.073171     48.000000
 -0.243902  0.268293  0.073171     48.000000
 -0.219512  0.268293  0.073171     48.000000
 -0.195122  0.268293  0.073171     24.000000
  0.365854  0.292683  0.073171     24.000000
  0.390244  0.292683  0.073171     48.000000
  0.414634  0.292683  0.073171     48.000000
  0.439024  0.292683  0.073171     48.000000
  0.463415  0.292683  0.073171     48.000000
  0.487805  0.292683  0.073171     48.000000
 -0.487805  0.292683  0.073171     48.000000
 -0.463415  0.292683  0.073171     48.000000
 -0.439024  0.292683  0.073171     48.000000
 -0.414634  0.292683  0.073171     48.000000
 -0.390244  0.292683  0.073171     48.000000
 -0.365854  0.292683  0.073171     48.000000
 -0.341463  0.292683  0.073171     48.000000
 -0.317073  0.292683  0.073171     48.000000
 -0.292683  0.292683  0.073171     48.000000
 -0.268293  0.292683  0.073171     48.000000
 -0.243902  0.292683  0.073171     48.000000
 -0.219512  0.292683  0.073171     24.000000
  0.390244  0.317073  0.073171     24.000000
  0.414634  0.317073  0.073171     48.000000
  0.439024  0.317073  0.073171     48.000000
  0.463415  0.317073  0.073171     48.000000
  0.487805  0.317073  0.073171     48.000000
 -0.487805  0.317073  0.073171     48.000000
 -0.463415  0.317073  0.073171     48.000000
 -0.439024  0.317073  0.073171     48.000000
 -0.414634  0.317073  0.073171     48.000000
 -0.390244  0.317073  0.073171     48.000000
 -0.365854  0.317073  0.073171     48.000000
 -0.341463  0.317073  0.073171     48.000000
 -0.317073  0.317073  0.073171     48.000000
 -0.292683  0.317073  0.073171     48.000000
 -0.268293  0.317073  0.073171     48.000000
 -0.243902  0.317073  0.073171     24.000000
  0.414634  0.341463  0.073171     24.000000
  0.439024  0.341463  0.073171     48.000000
  0.463415  0.341463  0.073171     48.000000
  0.487805  0.341463  0.073171     48.000000
 -0.487805  0.341463  0.073171     48.000000
 -0.463415  0.341463  0.073171     48.000000
 -0.439024  0.341463  0.073171     48.000000
 -0.414634  0.341463  0.073171     48.000000
 -0.390244  0.341463  0.073171     48.000000
 -0.365854  0.341463  0.073171     48.000000
 -0.341463  0.341463  0.073171     48.000000
 -0.317073  0.341463  0.073171     48.000000
 -0.292683  0.341463  0.073171     48.000000
 -0.268293  0.341463  0.073171     24.000000
  0.439024  0.365854  0.073171     24.000000
  0.463415  0.365854  0.073171     48.000000
  0.487805  0.365854  0.073171     48.000000
 -0.487805  0.365854  0.073171     48.000000
 -0.463415  0.365854  0.073171     48.000000
 -0.439024  0.365854  0.073171     48.000000
 -0.414634  0.365854  0.073171     48.000000
 -0.390244  0.365854  0.073171     48.000000
 -0.365854  0.365854  0.073171     48.000000
 -0.341463  0.365854  0.073171     48.000000
 -0.317073  0.365854  0.073171     48.000000
 -0.292683  0.365854  0.073171     24.000000
  0.463415  0.390244  0.073171     24.000000
  0.487805  0.390244  0.073171     48.000000
 -0.487805  0.390244  0.073171     48.000000
 -0.463415  0.390244  0.073171     48.000000
 -0.439024  0.390244  0.073171     48.000000
 -0.414634  0.390244  0.073171     48.000000
 -0.390244  0.390244  0.073171     48.000000
 -0.365854  0.390244  0.073171     48.000000
 -0.341463  0.390244  0.073171     48.000000
 -0.317073  0.390244  0.073171     24.000000
  0.487805  0.414634  0.073171     24.000000
 -0.487805  0.414634  0.073171     48.000000
 -0.463415  0.414634  0.073171     48.000000
 -0.439024  0.414634  0.073171     48.000000
 -0.414634  0.414634  0.073171     48.000000
 -0.390244  0.414634  0.073171     48.000000
 -0.365854  0.414634  0.073171     48.000000
 -0.341463  0.414634  0.073171     24.000000
 -0.487805  0.439024  0.073171     24.000000
 -0.463415  0.439024  0.073171     48.000000
 -0.439024  0.439024  0.073171     48.000000
 -0.414634  0.439024  0.073171     48.000000
 -0.390244  0.439024  0.073171     48.000000
 -0.365854  0.439024  0.073171     24.000000
 -0.463415  0.463415  0.073171     24.000000
 -0.439024  0.463415  0.073171     48.000000
 -0.414634  0.463415  0.073171     48.000000
 -0.390244  0.463415  0.073171     24.000000
 -0.439024  0.487805  0.073171     24.000000
 -0.414634  0.487805  0.073171     24.000000
  0.292683  0.195122  0.097561     24.000000
  0.317073  0.195122  0.097561     48.000000
  0.341463  0.195122  0.097561     48.000000
  0.365854  0.195122  0.097561     48.000000
  0.390244  0.195122  0.097561     48.000000
  0.414634  0.195122  0.097561     48.000000
  0.439024  0.195122  0.097561     48.000000
  0.463415  0.195122  0.097561     48.000000
  0.487805  0.195122  0.097561     48.000000
 -0.487805  0.195122  0.097561     48.000000
 -0.463415  0.195122  0.097561     48.000000
 -0.439024  0.195122  0.097561     48.000000
 -0.414634  0.195122  0.097561     48.000000
  0.317073  0.219512  0.097561     24.000000
  0.341463  0.219512  0.097561     48.000000
  0.365854  0.219512  0.097561     48.000000
  0.390244  0.219512  0.097561     48.000000
  0.414634  0.219512  0.097561     48.000000
  0.439024  0.219512  0.097561     48.000000
  0.463415  0.219512  0.097561     48.000000
  0.487805  0.219512  0.097561     48.000000
 -0.487805  0.219512  0.097561     48.000000
 -0.463415  0.219512  0.097561     48.000000
 -0.439024  0.219512  0.097561     48.000000
 -0.414634  0.219512  0.097561     48.000000
 -0.390244  0.219512  0.097561     48.000000
 -0.365854  0.219512  0.097561     48.000000
 -0.341463  0.219512  0.097561     48.000000
 -0.317073  0.219512  0.097561     48.000000
 -0.292683  0.219512  0.097561     48.000000
 -0.268293  0.219512  0.097561     48.000000
 -0.243902  0.219512  0.097561     48.000000
 -0.219512  0.219512  0.097561     48.000000
 -0.195122  0.219512  0.097561     48.000000
 -0.170732  0.219512  0.097561     48.000000
 -0.146341  0.219512  0.097561     48.000000
 -0.121951  0.219512  0.097561     24.000000
  0.341463  0.243902  0.097561     24.000000
  0.365854  0.243902  0.097561     48.000000
  0.390244  0.243902  0.097561     48.000000
  0.414634  0.243902  0.097561     48.000000
  0.439024  0.243902  0.097561     48.000000
  0.463415  0.243902  0.097561     48.000000
  0.487805  0.243902  0.097561     48.000000
 -0.487805  0.243902  0.097561     48.000000
 -0.463415  0.243902  0.097561     48.000000
 -0.439024  0.243902  0.097561     48.000000
 -0.414634  0.243902  0.097561     48.000000
 -0.390244  0.243902  0.097561     48.000000
 -0.365854  0.243902  0.097561     48.000000
 -0.341463  0.243902  0.097561     48.000000
 -0.317073  0.243902  0.097561     48.000000
 -0.292683  0.243902  0.097561     48.000000
 -0.268293  0.243902  0.097561     48.000000
 -0.243902  0.243902  0.097561     48.000000
 -0.219512  0.243902  0.097561     48.000000
 -0.195122  0.243902  0.097561     48.000000
 -0.170732  0.243902  0.097561     48.000000
 -0.146341  0.243902  0.097561     24.000000
  0.365854  0.268293  0.097561     24.000000
  0.390244  0.268293  0.097561     48.000000
  0.414634  0.268293  0.097561     48.000000
  0.439024  0.268293  0.097561     48.000000
  0.463415  0.268293  0.097561     48.000000
  0.487805  0.268293  0.097561     48.000000
 -0.487805  0.268293  0.097561     48.000000
 -0.463415  0.268293  0.097561     48.000000
 -0.439024  0.268293  0.097561     48.000000
 -0.414634  0.268293  0.097561     48.000000
 -0.390244  0.268293  0.097561     48.000000
 -0.365854  0.268293  0.097561     48.000000
 -0.341463  0.268293  0.097561     48.000000
 -0.317073  0.268293  0.097561     48.000000
 -0.292683  0.268293  0.097561     48.000000
 -0.268293  0.268293  0.097561     48.000000
 -0.243902  0.268293  0.097561     48.000000
 -0.219512  0.268293  0.097561     48.000000
 -0.195122  0.268293  0.097561     48.000000
 -0.170732  0.268293  0.097561     24.000000
  0.390244  0.292683  0.097561     24.000000
  0.414634  0.292683  0.097561     48.000000
  0.439024  0.292683  0.097561     48.000000
  0.463415  0.292683  0.097561     48.000000
  0.487805  0.292683  0.097561     48.000000
 -0.487805  0.292683  0.097561     48.000000
 -0.463415  0.292683  0.097561     48.000000
 -0.439024  0.292683  0.097561     48.000000
 -0.414634  0.292683  0.097561     48.000000
 -0.390244  0.292683  0.097561     48.000000
 -0.365854  0.292683  0.097561     48.000000
 -0.341463  0.292683  0.097561     48.000000
 -0.317073  0.292683  0.097561     48.000000
 -0.292683  0.292683  0.097561     48.000000
 -0.268293  0.292683  0.097561     48.000000
 -0.243902  0.292683  0.097561     48.000000
 -0.219512  0.292683  0.097561     48.000000
 -0.195122  0.292683  0.097561     24.000000
  0.414634  0.317073  0.097561     24.000000
  0.439024  0.317073  0.097561     48.000000
  0.463415  0.317073  0.097561     48.000000
  0.487805  0.317073  0.097561     48.000000
 -0.487805  0.317073  0.097561     48.000000
 -0.463415  0.317073  0.097561     48.000000
 -0.439024  0.317073  0.097561     48.000000
 -0.414634  0.317073  0.097561     48.000000
 -0.390244  0.317073  0.097561     48.000000
 -0.365854  0.317073  0.097561     48.000000
 -0.341463  0.317073  0.097561     48.000000
 -0.317073  0.317073  0.097561     48.000000
 -0.292683  0.317073  0.097561     48.000000
 -0.268293  0.317073  0.097561     48.000000
 -0.243902  0.317073  0.097561     48.000000
 -0.219512  0.317073  0.097561     24.000000
  0.439024  0.341463  0.097561     24.000000
  0.463415  0.341463  0.097561     48.000000
  0.487805  0.341463  0.097561     48.000000
 -0.487805  0.341463  0.097561     48.000000
 -0.463415  0.341463  0.097561     48.000000
 -0.439024  0.341463  0.097561     48.000000
 -0.414634  0.341463  0.097561     48.000000
 -0.390244  0.341463  0.097561     48.000000
 -0.365854  0.341463  0.097561     48.000000
 -0.341463  0.341463  0.097561     48.000000
 -0.317073  0.341463  0.097561     48.000000
 -0.292683  0.341463  0.097561     48.000000
 -0.268293  0.341463  0.097561     48.000000
 -0.243902  0.341463  0.097561     24.000000
  0.463415  0.365854  0.097561     24.000000
  0.487805  0.365854  0.097561     48.000000
 -0.487805  0.365854  0.097561     48.000000
 -0.463415  0.365854  0.097561     48.000000
 -0.439024  0.365854  0.097561     48.000000
 -0.414634  0.365854  0.097561     48.000000
 -0.390244  0.365854  0.097561     48.000000
 -0.365854  0.365854  0.097561     48.000000
 -0.341463  0.365854  0.097561     48.000000
 -0.317073  0.365854  0.097561     48.000000
 -0.292683  0.365854  0.097561     48.000000
 -0.268293  0.365854  0.097561     24.000000
  0.487805  0.390244  0.097561     24.000000
 -0.487805  0.390244  0.097561     48.000000
 -0.463415  0.390244  0.097561     48.000000
 -0.439024  0.390244  0.097561     48.000000
 -0.414634  0.390244  0.097561     48.000000
 -0.390244  0.390244  0.097561     48.000000
 -0.365854  0.390244  0.097561     48.000000
 -0.341463  0.390244  0.097561     48.000000
 -0.317073  0.390244  0.097561     48.000000
 -0.292683  0.390244  0.097561     24.000000
 -0.487805  0.414634  0.097561     24.000000
 -0.463415  0.414634  0.097561     48.000000
 -0.439024  0.414634  0.097561     48.000000
 -0.414634  0.414634  0.097561     48.000000
 -0.390244  0.414634  0.097561     48.000000
 -0.365854  0.414634  0.097561     48.000000
 -0.341463  0.414634  0.097561     48.000000
 -0.317073  0.414634  0.097561     24.000000
 -0.463415  0.439024  0.097561     24.000000
 -0.439024  0.439024  0.097561     48.000000
 -0.414634  0.439024  0.097561     48.000000
 -0.390244  0.439024  0.097561     48.000000
 -0.365854  0.439024  0.097561     48.000000
 -0.341463  0.439024  0.097561     24.000000
 -0.439024  0.463415  0.097561     24.000000
 -0.414634  0.463415  0.097561     48.000000
 -0.390244  0.463415  0.097561     48.000000
 -0.365854  0.463415  0.097561     24.000000
 -0.414634  0.487805  0.097561     24.000000
 -0.390244  0.487805  0.097561     24.000000
  0.365854  0.243902  0.121951     24.000000
[...]
      5       5.7193      2.00000
      6      10.3747      0.00000
      7      14.8271      0.00000
      8      16.5909      0.00000
      9      18.4462      0.00000

 k-point *** :      -0.3659    0.4390    0.1951
  band No.  band energies     occupation 
      1       3.1575      2.00000
      2       3.4997      2.00000
      3       4.1644      2.00000
      4       5.2241      2.00000
      5       5.7888      2.00000
      6      10.6613      0.00000
      7      15.3312      0.00000
      8      16.7618      0.00000
      9      17.0681      0.00000

 k-point *** :      -0.3415    0.4390    0.1951
  band No.  band energies     occupation 
      1       3.1918      2.00000
      2       3.5566      2.00000
      3       4.0993      2.00000
      4       5.1846      2.00000
      5       5.8132      2.00000
      6      11.3240      0.00000
      7      14.7379      0.00000
      8      16.5049      0.00000
      9      16.8561      0.00000

 k-point *** :      -0.3171    0.4390    0.1951
  band No.  band energies     occupation 
      1       3.2222      2.00000
      2       3.6158      2.00000
      3       4.0301      2.00000
      4       5.1514      2.00000
      5       5.8258      2.00000
      6      12.0084      0.00000
      7      14.0028      0.00000
      8      16.2646      0.00000
      9      16.9060      0.00000

 k-point *** :      -0.2927    0.4390    0.1951
  band No.  band energies     occupation 
      1       3.2490      2.00000
      2       3.6757      2.00000
      3       3.9560      2.00000
      4       5.1291      2.00000
      5       5.8255      2.00000
      6      12.6786      0.00000
      7      13.2586      0.00000
      8      16.0629      0.00000
      9      17.0991      0.00000

 k-point *** :      -0.2683    0.4390    0.1951
  band No.  band energies     occupation 
      1       3.2712      2.00000
      2       3.7359      2.00000
      3       3.8764      2.00000
      4       5.1195      2.00000
      5       5.8123      2.00000
      6      12.4535      0.00000
      7      13.3865      0.00000
      8      15.9667      0.00000
      9      17.3683      0.00000

 k-point *** :      -0.2439    0.4390    0.1951
  band No.  band energies     occupation 
      1       3.2876      2.00000
      2       3.7917      2.00000
      3       3.7973      2.00000
      4       5.1218      2.00000
      5       5.7876      2.00000
      6      11.7376      0.00000
      7      13.9132      0.00000
      8      16.0653      0.00000
      9      17.6920      0.00000

 k-point *** :      -0.3415    0.4634    0.1951
  band No.  band energies     occupation 
      1       3.1337      2.00000
      2       3.4838      2.00000
      3       4.2288      2.00000
      4       5.2188      2.00000
      5       5.8372      2.00000
      6      11.4108      0.00000
      7      15.1864      0.00000
      8      15.9270      0.00000
      9      16.8188      0.00000

 k-point *** :      -0.3171    0.4634    0.1951
  band No.  band energies     occupation 
      1       3.1699      2.00000
      2       3.5469      2.00000
      3       4.1456      2.00000
      4       5.1804      2.00000
      5       5.8497      2.00000
      6      12.0300      0.00000
      7      14.6246      0.00000
      8      15.6917      0.00000
      9      16.7220      0.00000

 k-point *** :      -0.2927    0.4634    0.1951
  band No.  band energies     occupation 
      1       3.2052      2.00000
      2       3.6131      2.00000
      3       4.0564      2.00000
      4       5.1499      2.00000
      5       5.8493      2.00000
      6      12.6116      0.00000
      7      13.9171      0.00000
      8      15.5796      0.00000
      9      16.8408      0.00000

 k-point *** :      -0.2683    0.4634    0.1951
  band No.  band energies     occupation 
      1       3.2394      2.00000
      2       3.6792      2.00000
      3       3.9634      2.00000
      4       5.1296      2.00000
      5       5.8364      2.00000
      6      13.0873      0.00000
      7      13.1804      0.00000
      8      15.6471      0.00000
      9      17.0701      0.00000

 k-point *** :      -0.3171    0.4878    0.1951
  band No.  band energies     occupation 
      1       3.1203      2.00000
      2       3.4758      2.00000
      3       4.2636      2.00000
      4       5.2142      2.00000
      5       5.8623      2.00000
      6      11.9516      0.00000
      7      15.1132      0.00000
      8      15.2811      0.00000
      9      16.7573      0.00000

 k-point *** :      -0.2927    0.4878    0.1951
  band No.  band energies     occupation 
      1       3.1620      2.00000
      2       3.5437      2.00000
      3       4.1618      2.00000
      4       5.1784      2.00000
      5       5.8621      2.00000
      6      12.3589      0.00000
      7      14.5815      0.00000
      8      15.3181      0.00000
      9      16.6915      0.00000

 k-point *** :      -0.3415    0.4390    0.2195
  band No.  band energies     occupation 
      1       3.2426      2.00000
      2       3.6373      2.00000
      3       3.9710      2.00000
      4       5.1578      2.00000
      5       5.7882      2.00000
      6      11.1867      0.00000
      7      14.6092      0.00000
      8      16.4309      0.00000
      9      17.3121      0.00000

 k-point *** :      -0.3171    0.4390    0.2195
  band No.  band energies     occupation 
      1       3.2543      2.00000
      2       3.7021      2.00000
      3       3.9134      2.00000
      4       5.1341      2.00000
      5       5.8127      2.00000
      6      11.8785      0.00000
      7      14.0486      0.00000
      8      16.3114      0.00000
      9      16.9837      0.00000

 k-point *** :      -0.2927    0.4390    0.2195
  band No.  band energies     occupation 
      1       3.2599      2.00000
      2       3.7561      2.00000
      3       3.8640      2.00000
      4       5.1208      2.00000
      5       5.8256      2.00000
      6      12.5809      0.00000
      7      13.3708      0.00000
      8      16.3710      0.00000
      9      16.7411      0.00000

 k-point *** :      -0.3171    0.4634    0.2195
  band No.  band energies     occupation 
      1       3.2112      2.00000
      2       3.6260      2.00000
      3       4.0270      2.00000
      4       5.1549      2.00000
      5       5.8370      2.00000
      6      11.9784      0.00000
      7      14.4612      0.00000
      8      16.1325      0.00000
      9      16.4998      0.00000

 k-point *** :      -0.2927    0.4634    0.2195
  band No.  band energies     occupation 
      1       3.2269      2.00000
      2       3.6980      2.00000
      3       3.9506      2.00000
      4       5.1326      2.00000
      5       5.8496      2.00000
      6      12.6350      0.00000
      7      13.9343      0.00000
      8      15.9306      0.00000
      9      16.3763      0.00000

 k-point *** :      -0.2683    0.4634    0.2195
  band No.  band energies     occupation 
      1       3.2396      2.00000
      2       3.7703      2.00000
      3       3.8705      2.00000
      4       5.1217      2.00000
      5       5.8495      2.00000
      6      13.2045      0.00000
      7      13.3225      0.00000
      8      15.8487      0.00000
      9      16.4606      0.00000

 k-point *** :      -0.2439    0.4634    0.2195
  band No.  band energies     occupation 
      1       3.2490      2.00000
      2       3.7859      2.00000
      3       3.8434      2.00000
      4       5.1227      2.00000
      5       5.8367      2.00000
      6      12.5684      0.00000
      7      13.7607      0.00000
      8      15.9424      0.00000
      9      16.6803      0.00000

 k-point *** :      -0.2927    0.4878    0.2195
  band No.  band energies     occupation 
      1       3.1942      2.00000
      2       3.6202      2.00000
      3       4.0570      2.00000
      4       5.1518      2.00000
      5       5.8623      2.00000
      6      12.5730      0.00000
      7      14.3862      0.00000
      8      15.5136      0.00000
      9      16.3653      0.00000

 k-point *** :      -0.2683    0.4878    0.2195
  band No.  band energies     occupation 
      1       3.2173      2.00000
      2       3.6965      2.00000
      3       3.9636      2.00000
      4       5.1316      2.00000
      5       5.8622      2.00000
      6      13.0070      0.00000
      7      13.8924      0.00000
      8      15.5493      0.00000
      9      16.3120      0.00000

 k-point *** :      -0.2683    0.4878    0.2439
  band No.  band energies     occupation 
      1       3.2290      2.00000
      2       3.7829      2.00000
      3       3.8678      2.00000
      4       5.1220      2.00000
      5       5.8623      2.00000
      6      13.2209      0.00000
      7      13.6835      0.00000
      8      15.6881      0.00000
      9      16.1308      0.00000


--------------------------------------------------------------------------------------------------------


 soft charge-density along one line, spin component           1
         0         1         2         3         4         5         6         7         8         9
x     4.0023    0.0000    0.4601    0.0000   -0.1477    0.0000   -0.0025    0.0000    0.0077    0.0000
x     0.0003    0.0000    0.0000    0.0000    0.0000    0.0000    0.0000    0.0000    0.0000    0.0000
y     4.0023    0.0000    0.4601    0.0000   -0.1477    0.0000   -0.0025    0.0000    0.0077    0.0000
y     0.0003    0.0000    0.0000    0.0000    0.0000    0.0000    0.0000    0.0000    0.0000    0.0000
z     4.0023    0.0000    0.4601    0.0000   -0.1477    0.0000   -0.0025    0.0000    0.0077    0.0000
z     0.0003    0.0000    0.0000    0.0000    0.0000    0.0000    0.0000    0.0000    0.0000    0.0000
 total charge-density along one line
x    11.0000    0.0000    5.4981    0.0000    1.5448    0.0000    0.1178    0.0000   -0.0160    0.0000
x     0.0063    0.0000   -0.0022    0.0000    0.0008    0.0000   -0.0003    0.0000    0.0001    0.0000
x     0.0000    0.0000    0.0000    0.0000    0.0000    0.0000    0.0000    0.0000    0.0000    0.0000
x     0.0000    0.0000    0.0000    0.0000    0.0000    0.0000    0.0000    0.0000
y    11.0000    0.0000    5.4981    0.0000    1.5448    0.0000    0.1178    0.0000   -0.0160    0.0000
y     0.0063    0.0000   -0.0022    0.0000    0.0008    0.0000   -0.0003    0.0000    0.0001    0.0000
y     0.0000    0.0000    0.0000    0.0000    0.0000    0.0000    0.0000    0.0000    0.0000    0.0000
y     0.0000    0.0000    0.0000    0.0000    0.0000    0.0000    0.0000    0.0000
z    11.0000    0.0000    5.4981    0.0000    1.5448    0.0000    0.1178    0.0000   -0.0160    0.0000
z     0.0063    0.0000   -0.0022    0.0000    0.0008    0.0000   -0.0003    0.0000    0.0001    0.0000
z     0.0000    0.0000    0.0000    0.0000    0.0000    0.0000    0.0000    0.0000    0.0000    0.0000
z     0.0000    0.0000    0.0000    0.0000    0.0000    0.0000    0.0000    0.0000
 
 pseudopotential strength for first ion, spin component:           1
 -3.079   0.000   0.000   0.000   0.000  -4.599   0.000   0.000
  0.000  -3.079   0.000   0.000   0.000   0.000  -4.599   0.000
  0.000   0.000  -3.061   0.000   0.000   0.000   0.000  -4.612
  0.000   0.000   0.000  -3.079   0.000   0.000   0.000   0.000
  0.000   0.000   0.000   0.000  -3.061   0.000   0.000   0.000
 -4.599   0.000   0.000   0.000   0.000  10.190   0.000   0.000
  0.000  -4.599   0.000   0.000   0.000   0.000  10.190   0.000
  0.000   0.000  -4.612   0.000   0.000   0.000   0.000  10.199
  0.000   0.000   0.000  -4.599   0.000   0.000   0.000   0.000
  0.000   0.000   0.000   0.000  -4.612   0.000   0.000   0.000
  0.000   0.000   0.000   0.000   0.000   0.000   0.000   0.000
  0.000   0.000   0.000   0.000   0.000   0.000   0.000   0.000
  0.000   0.000   0.000   0.000   0.000   0.000   0.000   0.000
  0.000   0.000   0.000   0.000   0.000   0.000   0.000   0.000
  0.000   0.000   0.000   0.000   0.000   0.000   0.000   0.000
  0.000   0.000   0.000   0.000   0.000   0.000   0.000   0.000
  0.000   0.000   0.000   0.000   0.000   0.000   0.000   0.000
  0.000   0.000   0.000   0.000   0.000   0.000   0.000   0.000
 total augmentation occupancy for first ion, spin component:           1
  1.909   0.000   0.000   0.000   0.000  -0.011   0.000   0.000   0.000   0.000   0.000   0.000   0.000   0.000   0.000   0.000
  0.000   1.909   0.000   0.000   0.000   0.000  -0.011   0.000   0.000   0.000   0.000   0.000   0.000   0.000   0.000   0.000
  0.000   0.000   1.928   0.000   0.000   0.000   0.000  -0.030   0.000   0.000   0.000   0.000   0.000   0.000   0.000   0.000
  0.000   0.000   0.000   1.909   0.000   0.000   0.000   0.000  -0.011   0.000   0.000   0.000   0.000   0.000   0.000   0.000
  0.000   0.000   0.000   0.000   1.928   0.000   0.000   0.000   0.000  -0.030   0.000   0.000   0.000   0.000   0.000   0.000
 -0.011   0.000   0.000   0.000   0.000   0.017   0.000   0.000   0.000   0.000   0.000   0.000   0.000   0.000   0.000   0.000
  0.000  -0.011   0.000   0.000   0.000   0.000   0.017   0.000   0.000   0.000   0.000   0.000   0.000   0.000   0.000   0.000
  0.000   0.000  -0.030   0.000   0.000   0.000   0.000   0.016   0.000   0.000   0.000   0.000   0.000   0.000   0.000   0.000
  0.000   0.000   0.000  -0.011   0.000   0.000   0.000   0.000   0.017   0.000   0.000   0.000   0.000   0.000   0.000   0.000
  0.000   0.000   0.000   0.000  -0.030   0.000   0.000   0.000   0.000   0.016   0.000   0.000   0.000   0.000   0.000   0.000
  0.000   0.000   0.000   0.000   0.000   0.000   0.000   0.000   0.000   0.000   1.848  -0.191   0.000   0.000   0.000   0.000
  0.000   0.000   0.000   0.000   0.000   0.000   0.000   0.000   0.000   0.000  -0.191   0.025   0.000   0.000   0.000   0.000
  0.000   0.000   0.000   0.000   0.000   0.000   0.000   0.000   0.000   0.000   0.000   0.000   0.242   0.000   0.000  -0.017
  0.000   0.000   0.000   0.000   0.000   0.000   0.000   0.000   0.000   0.000   0.000   0.000   0.000   0.242   0.000   0.000
  0.000   0.000   0.000   0.000   0.000   0.000   0.000   0.000   0.000   0.000   0.000   0.000   0.000   0.000   0.242   0.000
  0.000   0.000   0.000   0.000   0.000   0.000   0.000   0.000   0.000   0.000   0.000   0.000  -0.017   0.000   0.000   0.001
  0.000   0.000   0.000   0.000   0.000   0.000   0.000   0.000   0.000   0.000   0.000   0.000   0.000  -0.017   0.000   0.000
  0.000   0.000   0.000   0.000   0.000   0.000   0.000   0.000   0.000   0.000   0.000   0.000   0.000   0.000  -0.017   0.000


------------------------ aborting loop because EDIFF is reached ----------------------------------------


 


 total charge     
 
# of ion     s       p       d       tot
----------------------------------------
  1        0.449   0.383   9.167   9.999
 
    CHARGE:  cpu time    2.14: real time    2.15
    FORLOC:  cpu time    0.00: real time    0.00
    FORNL :  cpu time    0.97: real time    0.98
    STRESS:  cpu time    4.02: real time    4.04
    FORCOR:  cpu time    0.04: real time    0.04
    FORHAR:  cpu time    0.01: real time    0.01
    MIXING:  cpu time    0.00: real time    0.00
    FORVDW:  cpu time    0.00: real time    0.00

  FORCE on cell =-STRESS in cart. coord.  units (eV):
  Direction    XX          YY          ZZ          XY          YZ          ZX
  --------------------------------------------------------------------------------------
  Alpha Z    61.66610    61.66610    61.66610
  Ewald    -367.79677  -367.79677  -367.79677     0.00000     0.00000     0.00000
  Hartree   112.72500   112.72500   112.72500     0.00000     0.00000     0.00000
  E(xc)     -63.44038   -63.44038   -63.44038     0.00000     0.00000     0.00000
  Local      93.60641    93.60641    93.60641     0.00007     0.00007     0.00007
  n-local   -20.37011   -22.60304   -21.38835    -1.54328     1.04579     1.72006
  augment    94.15194    94.15194    94.15194    -0.00004    -0.00004    -0.00004
  Kinetic    88.42268    92.46319    89.17961     2.66894    -2.26479    -1.99954
  Fock        0.00000     0.00000     0.00000     0.00000     0.00000     0.00000
  -------------------------------------------------------------------------------------
  Total      -0.51970    -0.51970    -0.51970     0.00000     0.00000     0.00000
  in kB     -70.20929   -70.20929   -70.20929     0.00000     0.00000     0.00000
  external pressure =      -70.21 kB  Pullay stress =        0.00 kB


 VOLUME and BASIS-vectors are now :
 -----------------------------------------------------------------------------
  energy-cutoff  :      450.00
  volume of cell :       11.86
      direct lattice vectors                 reciprocal lattice vectors
     1.810000000  1.810000000  0.000000000     0.276243094  0.276243094 -0.276243094
     0.000000000  1.810000000  1.810000000    -0.276243094  0.276243094  0.276243094
     1.810000000  0.000000000  1.810000000     0.276243094 -0.276243094  0.276243094

  length of vectors
     2.559726548  2.559726548  2.559726548     0.478467074  0.478467074  0.478467074


 FORCES acting on ions
    electron-ion (+dipol)            ewald-force                    non-local-force                 convergence-correction
 -----------------------------------------------------------------------------------------------
   -.376E-13 -.560E-13 0.750E-13   -.206E-14 -.151E-14 0.276E-15   0.196E-23 -.414E-24 -.517E-24   0.910E-13 0.653E-13 -.841E-14
 -----------------------------------------------------------------------------------------------
   -.376E-13 -.560E-13 0.750E-13   -.206E-14 -.151E-14 0.276E-15   0.196E-23 -.414E-24 -.517E-24   0.910E-13 0.653E-13 -.841E-14
 
 
 POSITION                                       TOTAL-FORCE (eV/Angst)
 -----------------------------------------------------------------------------------
      0.00000      0.00000      0.00000         0.000000      0.000000      0.000000
 -----------------------------------------------------------------------------------
    total drift:                                0.000000      0.000000      0.000000


--------------------------------------------------------------------------------------------------------



  FREE ENERGIE OF THE ION-ELECTRON SYSTEM (eV)
  ---------------------------------------------------
  free  energy   TOTEN  =        -4.29758225 eV

  energy  without entropy=       -4.29772001  energy(sigma->0) =       -4.29762817
 


--------------------------------------------------------------------------------------------------------


    POTLOK:  cpu time    0.04: real time    0.04


--------------------------------------------------------------------------------------------------------


 writing wavefunctions
     LOOP+:  cpu time  285.42: real time  287.45
    4ORBIT:  cpu time    0.00: real time    0.00
 


 total charge     
 
# of ion     s       p       d       tot
----------------------------------------
  1        0.449   0.383   9.167   9.999
 

 total amount of memory used by VASP on root node   175391. kBytes
========================================================================

   base      :      30000. kBytes
   nonl-proj :      69115. kBytes
   grid      :       2560. kBytes
   one-center:         15. kBytes
   wavefun   :      73701. kBytes
 
  
  
 General timing and accounting informations for this job:
 ========================================================
  
                  Total CPU time used (sec):      295.551
                            User time (sec):      293.609
                          System time (sec):        1.942
                         Elapsed time (sec):      297.878
  
                   Maximum memory used (kb):      322448.
                   Average memory used (kb):           0.
  
                          Minor page faults:        81029
                          Major page faults:            0
                 Voluntary context switches:          720
