<?xml version="1.0" encoding="ISO-8859-1"?>
<modeling>
 <generator>
  <i name="program" type="string">vasp </i>
  <i name="version" type="string">5.3.2  </i>
  <i name="subversion" type="string">13Sep12 (build Nov 15 2012 16:01:14) complex                          serial </i>
  <i name="platform" type="string">LinuxIFC </i>
  <i name="date" type="string">2014 04 25 </i>
  <i name="time" type="string">14:43:57 </i>
 </generator>
 <incar>
  <i type="string" name="SYSTEM"> "Cu metal"</i>
  <i type="int" name="ISTART">     0</i>
  <i type="string" name="PREC">accurate</i>
  <i name="EDIFF">      0.00000100</i>
  <i type="int" name="NSW">     0</i>
  <i name="ENCUT">    450.00000000</i>
  <i type="int" name="ISMEAR">     1</i>
  <i name="SIGMA">      0.20000000</i>
  <i type="logical" name="LORBIT"> F  </i>
  <i type="string" name="GGA"> PS</i>
 </incar>
 <kpoints>
  <generation param="Gamma">
   <v type="int" name="divisions">      41       41       41 </v>
   <v name="usershift">      0.00000000       0.00000000       0.00000000 </v>
   <v name="genvec1">      0.02439024       0.00000000       0.00000000 </v>
   <v name="genvec2">      0.00000000       0.02439024       0.00000000 </v>
   <v name="genvec3">      0.00000000       0.00000000       0.02439024 </v>
   <v name="shift">      0.00000000       0.00000000       0.00000000 </v>
  </generation>
  <varray name="kpointlist" >
   <v>       0.00000000       0.00000000       0.00000000 </v>
   <v>       0.02439024       0.00000000       0.00000000 </v>
   <v>       0.04878049       0.00000000       0.00000000 </v>
   <v>       0.07317073       0.00000000       0.00000000 </v>
   <v>       0.09756098       0.00000000       0.00000000 </v>
   <v>       0.12195122       0.00000000       0.00000000 </v>
   <v>       0.14634146       0.00000000       0.00000000 </v>
   <v>       0.17073171       0.00000000       0.00000000 </v>
   <v>       0.19512195       0.00000000       0.00000000 </v>
   <v>       0.21951220       0.00000000       0.00000000 </v>
   <v>       0.24390244       0.00000000       0.00000000 </v>
   <v>       0.26829268       0.00000000       0.00000000 </v>
   <v>       0.29268293       0.00000000       0.00000000 </v>
   <v>       0.31707317       0.00000000       0.00000000 </v>
   <v>       0.34146341       0.00000000       0.00000000 </v>
   <v>       0.36585366       0.00000000       0.00000000 </v>
   <v>       0.39024390       0.00000000       0.00000000 </v>
   <v>       0.41463415       0.00000000       0.00000000 </v>
   <v>       0.43902439       0.00000000       0.00000000 </v>
   <v>       0.46341463       0.00000000       0.00000000 </v>
   <v>       0.48780488       0.00000000       0.00000000 </v>
   <v>       0.02439024       0.02439024       0.00000000 </v>
   <v>       0.04878049       0.02439024       0.00000000 </v>
   <v>       0.07317073       0.02439024       0.00000000 </v>
   <v>       0.09756098       0.02439024       0.00000000 </v>
   <v>       0.12195122       0.02439024       0.00000000 </v>
   <v>       0.14634146       0.02439024       0.00000000 </v>
   <v>       0.17073171       0.02439024       0.00000000 </v>
   <v>       0.19512195       0.02439024       0.00000000 </v>
   <v>       0.21951220       0.02439024       0.00000000 </v>
   <v>       0.24390244       0.02439024       0.00000000 </v>
   <v>       0.26829268       0.02439024       0.00000000 </v>
   <v>       0.29268293       0.02439024       0.00000000 </v>
   <v>       0.31707317       0.02439024       0.00000000 </v>
   <v>       0.34146341       0.02439024       0.00000000 </v>
   <v>       0.36585366       0.02439024       0.00000000 </v>
   <v>       0.39024390       0.02439024       0.00000000 </v>
   <v>       0.41463415       0.02439024       0.00000000 </v>
   <v>       0.43902439       0.02439024       0.00000000 </v>
   <v>       0.46341463       0.02439024       0.00000000 </v>
   <v>       0.48780488       0.02439024       0.00000000 </v>
   <v>      -0.48780488       0.02439024       0.00000000 </v>
   <v>      -0.46341463       0.02439024       0.00000000 </v>
   <v>      -0.43902439       0.02439024       0.00000000 </v>
   <v>      -0.41463415       0.02439024       0.00000000 </v>
   <v>      -0.39024390       0.02439024       0.00000000 </v>
   <v>      -0.36585366       0.02439024       0.00000000 </v>
   <v>      -0.34146341       0.02439024       0.00000000 </v>
   <v>      -0.31707317       0.02439024       0.00000000 </v>
   <v>      -0.29268293       0.02439024       0.00000000 </v>
   <v>      -0.26829268       0.02439024       0.00000000 </v>
   <v>      -0.24390244       0.02439024       0.00000000 </v>
   <v>      -0.21951220       0.02439024       0.00000000 </v>
   <v>      -0.19512195       0.02439024       0.00000000 </v>
   <v>      -0.17073171       0.02439024       0.00000000 </v>
   <v>      -0.14634146       0.02439024       0.00000000 </v>
   <v>      -0.12195122       0.02439024       0.00000000 </v>
   <v>      -0.09756098       0.02439024       0.00000000 </v>
   <v>      -0.07317073       0.02439024       0.00000000 </v>
   <v>      -0.04878049       0.02439024       0.00000000 </v>
   <v>      -0.02439024       0.02439024       0.00000000 </v>
   <v>       0.04878049       0.04878049       0.00000000 </v>
   <v>       0.07317073       0.04878049       0.00000000 </v>
   <v>       0.09756098       0.04878049       0.00000000 </v>
   <v>       0.12195122       0.04878049       0.00000000 </v>
   <v>       0.14634146       0.04878049       0.00000000 </v>
   <v>       0.17073171       0.04878049       0.00000000 </v>
   <v>       0.19512195       0.04878049       0.00000000 </v>
   <v>       0.21951220       0.04878049       0.00000000 </v>
   <v>       0.24390244       0.04878049       0.00000000 </v>
   <v>       0.26829268       0.04878049       0.00000000 </v>
   <v>       0.29268293       0.04878049       0.00000000 </v>
   <v>       0.31707317       0.04878049       0.00000000 </v>
   <v>       0.34146341       0.04878049       0.00000000 </v>
   <v>       0.36585366       0.04878049       0.00000000 </v>
   <v>       0.39024390       0.04878049       0.00000000 </v>
   <v>       0.41463415       0.04878049       0.00000000 </v>
   <v>       0.43902439       0.04878049       0.00000000 </v>
   <v>       0.46341463       0.04878049       0.00000000 </v>
   <v>       0.48780488       0.04878049       0.00000000 </v>
   <v>      -0.48780488       0.04878049       0.00000000 </v>
   <v>      -0.46341463       0.04878049       0.00000000 </v>
   <v>      -0.43902439       0.04878049       0.00000000 </v>
   <v>      -0.41463415       0.04878049       0.00000000 </v>
   <v>      -0.39024390       0.04878049       0.00000000 </v>
   <v>      -0.36585366       0.04878049       0.00000000 </v>
   <v>      -0.34146341       0.04878049       0.00000000 </v>
   <v>      -0.31707317       0.04878049       0.00000000 </v>
   <v>      -0.29268293       0.04878049       0.00000000 </v>
   <v>      -0.26829268       0.04878049       0.00000000 </v>
   <v>      -0.24390244       0.04878049       0.00000000 </v>
   <v>      -0.21951220       0.04878049       0.00000000 </v>
   <v>      -0.19512195       0.04878049       0.00000000 </v>
   <v>      -0.17073171       0.04878049       0.00000000 </v>
   <v>      -0.14634146       0.04878049       0.00000000 </v>
   <v>      -0.12195122       0.04878049       0.00000000 </v>
   <v>      -0.09756098       0.04878049       0.00000000 </v>
   <v>      -0.07317073       0.04878049       0.00000000 </v>
   <v>      -0.04878049       0.04878049       0.00000000 </v>
   <v>       0.07317073       0.07317073       0.00000000 </v>
   <v>       0.09756098       0.07317073       0.00000000 </v>
   <v>       0.12195122       0.07317073       0.00000000 </v>
   <v>       0.14634146       0.07317073       0.00000000 </v>
   <v>       0.17073171       0.07317073       0.00000000 </v>
   <v>       0.19512195       0.07317073       0.00000000 </v>
   <v>       0.21951220       0.07317073       0.00000000 </v>
   <v>       0.24390244       0.07317073       0.00000000 </v>
   <v>       0.26829268       0.07317073       0.00000000 </v>
   <v>       0.29268293       0.07317073       0.00000000 </v>
   <v>       0.31707317       0.07317073       0.00000000 </v>
   <v>       0.34146341       0.07317073       0.00000000 </v>
   <v>       0.36585366       0.07317073       0.00000000 </v>
   <v>       0.39024390       0.07317073       0.00000000 </v>
   <v>       0.41463415       0.07317073       0.00000000 </v>
   <v>       0.43902439       0.07317073       0.00000000 </v>
   <v>       0.46341463       0.07317073       0.00000000 </v>
   <v>       0.48780488       0.07317073       0.00000000 </v>
   <v>      -0.48780488       0.07317073       0.00000000 </v>
   <v>      -0.46341463       0.07317073       0.00000000 </v>
   <v>      -0.43902439       0.07317073       0.00000000 </v>
   <v>      -0.41463415       0.07317073       0.00000000 </v>
   <v>      -0.39024390       0.07317073       0.00000000 </v>
   <v>      -0.36585366       0.07317073       0.00000000 </v>
   <v>      -0.34146341       0.07317073       0.00000000 </v>
   <v>      -0.31707317       0.07317073       0.00000000 </v>
   <v>      -0.29268293       0.07317073       0.00000000 </v>
   <v>      -0.26829268       0.07317073       0.00000000 </v>
   <v>      -0.24390244       0.07317073       0.00000000 </v>
   <v>      -0.21951220       0.07317073       0.00000000 </v>
   <v>      -0.19512195       0.07317073       0.00000000 </v>
   <v>      -0.17073171       0.07317073       0.00000000 </v>
   <v>      -0.14634146       0.07317073       0.00000000 </v>
   <v>      -0.12195122       0.07317073       0.00000000 </v>
   <v>      -0.09756098       0.07317073       0.00000000 </v>
   <v>      -0.07317073       0.07317073       0.00000000 </v>
   <v>       0.09756098       0.09756098       0.00000000 </v>
   <v>       0.12195122       0.09756098       0.00000000 </v>
   <v>       0.14634146       0.09756098       0.00000000 </v>
   <v>       0.17073171       0.09756098       0.00000000 </v>
   <v>       0.19512195       0.09756098       0.00000000 </v>
   <v>       0.21951220       0.09756098       0.00000000 </v>
   <v>       0.24390244       0.09756098       0.00000000 </v>
   <v>       0.26829268       0.09756098       0.00000000 </v>
   <v>       0.29268293       0.09756098       0.00000000 </v>
   <v>       0.31707317       0.09756098       0.00000000 </v>
   <v>       0.34146341       0.09756098       0.00000000 </v>
   <v>       0.36585366       0.09756098       0.00000000 </v>
   <v>       0.39024390       0.09756098       0.00000000 </v>
   <v>       0.41463415       0.09756098       0.00000000 </v>
   <v>       0.43902439       0.09756098       0.00000000 </v>
   <v>       0.46341463       0.09756098       0.00000000 </v>
   <v>       0.48780488       0.09756098       0.00000000 </v>
   <v>      -0.48780488       0.09756098       0.00000000 </v>
   <v>      -0.46341463       0.09756098       0.00000000 </v>
   <v>      -0.43902439       0.09756098       0.00000000 </v>
   <v>      -0.41463415       0.09756098       0.00000000 </v>
   <v>      -0.39024390       0.09756098       0.00000000 </v>
   <v>      -0.36585366       0.09756098       0.00000000 </v>
   <v>      -0.34146341       0.09756098       0.00000000 </v>
   <v>      -0.31707317       0.09756098       0.00000000 </v>
   <v>      -0.29268293       0.09756098       0.00000000 </v>
   <v>      -0.26829268       0.09756098       0.00000000 </v>
   <v>      -0.24390244       0.09756098       0.00000000 </v>
   <v>      -0.21951220       0.09756098       0.00000000 </v>
   <v>      -0.19512195       0.09756098       0.00000000 </v>
   <v>      -0.17073171       0.09756098       0.00000000 </v>
   <v>      -0.14634146       0.09756098       0.00000000 </v>
   <v>      -0.12195122       0.09756098       0.00000000 </v>
   <v>      -0.09756098       0.09756098       0.00000000 </v>
   <v>       0.12195122       0.12195122       0.00000000 </v>
   <v>       0.14634146       0.12195122       0.00000000 </v>
   <v>       0.17073171       0.12195122       0.00000000 </v>
   <v>       0.19512195       0.12195122       0.00000000 </v>
   <v>       0.21951220       0.12195122       0.00000000 </v>
   <v>       0.24390244       0.12195122       0.00000000 </v>
   <v>       0.26829268       0.12195122       0.00000000 </v>
   <v>       0.29268293       0.12195122       0.00000000 </v>
   <v>       0.31707317       0.12195122       0.00000000 </v>
   <v>       0.34146341       0.12195122       0.00000000 </v>
   <v>       0.36585366       0.12195122       0.00000000 </v>
   <v>       0.39024390       0.12195122       0.00000000 </v>
   <v>       0.41463415       0.12195122       0.00000000 </v>
   <v>       0.43902439       0.12195122       0.00000000 </v>
   <v>       0.46341463       0.12195122       0.00000000 </v>
   <v>       0.48780488       0.12195122       0.00000000 </v>
   <v>      -0.48780488       0.12195122       0.00000000 </v>
   <v>      -0.46341463       0.12195122       0.00000000 </v>
   <v>      -0.43902439       0.12195122       0.00000000 </v>
   <v>      -0.41463415       0.12195122       0.00000000 </v>
   <v>      -0.39024390       0.12195122       0.00000000 </v>
   <v>      -0.36585366       0.12195122       0.00000000 </v>
   <v>      -0.34146341       0.12195122       0.00000000 </v>
   <v>      -0.31707317       0.12195122       0.00000000 </v>
   <v>      -0.29268293       0.12195122       0.00000000 </v>
   <v>      -0.26829268       0.12195122       0.00000000 </v>
   <v>      -0.24390244       0.12195122       0.00000000 </v>
   <v>      -0.21951220       0.12195122       0.00000000 </v>
   <v>      -0.19512195       0.12195122       0.00000000 </v>
   <v>      -0.17073171       0.12195122       0.00000000 </v>
   <v>      -0.14634146       0.12195122       0.00000000 </v>
   <v>      -0.12195122       0.12195122       0.00000000 </v>
   <v>       0.14634146       0.14634146       0.00000000 </v>
   <v>       0.17073171       0.14634146       0.00000000 </v>
   <v>       0.19512195       0.14634146       0.00000000 </v>
   <v>       0.21951220       0.14634146       0.00000000 </v>
   <v>       0.24390244       0.14634146       0.00000000 </v>
   <v>       0.26829268       0.14634146       0.00000000 </v>
   <v>       0.29268293       0.14634146       0.00000000 </v>
   <v>       0.31707317       0.14634146       0.00000000 </v>
   <v>       0.34146341       0.14634146       0.00000000 </v>
   <v>       0.36585366       0.14634146       0.00000000 </v>
   <v>       0.39024390       0.14634146       0.00000000 </v>
   <v>       0.41463415       0.14634146       0.00000000 </v>
   <v>       0.43902439       0.14634146       0.00000000 </v>
   <v>       0.46341463       0.14634146       0.00000000 </v>
   <v>       0.48780488       0.14634146       0.00000000 </v>
   <v>      -0.48780488       0.14634146       0.00000000 </v>
   <v>      -0.46341463       0.14634146       0.00000000 </v>
   <v>      -0.43902439       0.14634146       0.00000000 </v>
   <v>      -0.41463415       0.14634146       0.00000000 </v>
   <v>      -0.39024390       0.14634146       0.00000000 </v>
   <v>      -0.36585366       0.14634146       0.00000000 </v>
   <v>      -0.34146341       0.14634146       0.00000000 </v>
   <v>      -0.31707317       0.14634146       0.00000000 </v>
   <v>      -0.29268293       0.14634146       0.00000000 </v>
   <v>      -0.26829268       0.14634146       0.00000000 </v>
   <v>      -0.24390244       0.14634146       0.00000000 </v>
   <v>      -0.21951220       0.14634146       0.00000000 </v>
   <v>      -0.19512195       0.14634146       0.00000000 </v>
   <v>      -0.17073171       0.14634146       0.00000000 </v>
   <v>      -0.14634146       0.14634146       0.00000000 </v>
   <v>       0.17073171       0.17073171       0.00000000 </v>
   <v>       0.19512195       0.17073171       0.00000000 </v>
   <v>       0.21951220       0.17073171       0.00000000 </v>
   <v>       0.24390244       0.17073171       0.00000000 </v>
   <v>       0.26829268       0.17073171       0.00000000 </v>
   <v>       0.29268293       0.17073171       0.00000000 </v>
   <v>       0.31707317       0.17073171       0.00000000 </v>
   <v>       0.34146341       0.17073171       0.00000000 </v>
   <v>       0.36585366       0.17073171       0.00000000 </v>
   <v>       0.39024390       0.17073171       0.00000000 </v>
   <v>       0.41463415       0.17073171       0.00000000 </v>
   <v>       0.43902439       0.17073171       0.00000000 </v>
   <v>       0.46341463       0.17073171       0.00000000 </v>
   <v>       0.48780488       0.17073171       0.00000000 </v>
   <v>      -0.48780488       0.17073171       0.00000000 </v>
   <v>      -0.46341463       0.17073171       0.00000000 </v>
   <v>      -0.43902439       0.17073171       0.00000000 </v>
   <v>      -0.41463415       0.17073171       0.00000000 </v>
   <v>      -0.39024390       0.17073171       0.00000000 </v>
   <v>      -0.36585366       0.17073171       0.00000000 </v>
   <v>      -0.34146341       0.17073171       0.00000000 </v>
   <v>      -0.31707317       0.17073171       0.00000000 </v>
   <v>      -0.29268293       0.17073171       0.00000000 </v>
   <v>      -0.26829268       0.17073171       0.00000000 </v>
   <v>      -0.24390244       0.17073171       0.00000000 </v>
   <v>      -0.21951220       0.17073171       0.00000000 </v>
   <v>      -0.19512195       0.17073171       0.00000000 </v>
   <v>      -0.17073171       0.17073171       0.00000000 </v>
   <v>       0.19512195       0.19512195       0.00000000 </v>
   <v>       0.21951220       0.19512195       0.00000000 </v>
   <v>       0.24390244       0.19512195       0.00000000 </v>
   <v>       0.26829268       0.19512195       0.00000000 </v>
   <v>       0.29268293       0.19512195       0.00000000 </v>
   <v>       0.31707317       0.19512195       0.00000000 </v>
   <v>       0.34146341       0.19512195       0.00000000 </v>
   <v>       0.36585366       0.19512195       0.00000000 </v>
   <v>       0.39024390       0.19512195       0.00000000 </v>
   <v>       0.41463415       0.19512195       0.00000000 </v>
   <v>       0.43902439       0.19512195       0.00000000 </v>
   <v>       0.46341463       0.19512195       0.00000000 </v>
   <v>       0.48780488       0.19512195       0.00000000 </v>
   <v>      -0.48780488       0.19512195       0.00000000 </v>
   <v>      -0.46341463       0.19512195       0.00000000 </v>
   <v>      -0.43902439       0.19512195       0.00000000 </v>
   <v>      -0.41463415       0.19512195       0.00000000 </v>
   <v>      -0.39024390       0.19512195       0.00000000 </v>
   <v>      -0.36585366       0.19512195       0.00000000 </v>
   <v>      -0.34146341       0.19512195       0.00000000 </v>
   <v>      -0.31707317       0.19512195       0.00000000 </v>
   <v>      -0.29268293       0.19512195       0.00000000 </v>
   <v>      -0.26829268       0.19512195       0.00000000 </v>
   <v>      -0.24390244       0.19512195       0.00000000 </v>
   <v>      -0.21951220       0.19512195       0.00000000 </v>
   <v>      -0.19512195       0.19512195       0.00000000 </v>
   <v>       0.21951220       0.21951220       0.00000000 </v>
   <v>       0.24390244       0.21951220       0.00000000 </v>
   <v>       0.26829268       0.21951220       0.00000000 </v>
   <v>       0.29268293       0.21951220       0.00000000 </v>
   <v>       0.31707317       0.21951220       0.00000000 </v>
   <v>       0.34146341       0.21951220       0.00000000 </v>
   <v>       0.36585366       0.21951220       0.00000000 </v>
   <v>       0.39024390       0.21951220       0.00000000 </v>
   <v>       0.41463415       0.21951220       0.00000000 </v>
   <v>       0.43902439       0.21951220       0.00000000 </v>
   <v>       0.46341463       0.21951220       0.00000000 </v>
   <v>       0.48780488       0.21951220       0.00000000 </v>
   <v>      -0.48780488       0.21951220       0.00000000 </v>
   <v>      -0.46341463       0.21951220       0.00000000 </v>
   <v>      -0.43902439       0.21951220       0.00000000 </v>
   <v>      -0.41463415       0.21951220       0.00000000 </v>
   <v>      -0.39024390       0.21951220       0.00000000 </v>
   <v>      -0.36585366       0.21951220       0.00000000 </v>
   <v>      -0.34146341       0.21951220       0.00000000 </v>
   <v>      -0.31707317       0.21951220       0.00000000 </v>
   <v>      -0.29268293       0.21951220       0.00000000 </v>
   <v>      -0.26829268       0.21951220       0.00000000 </v>
   <v>      -0.24390244       0.21951220       0.00000000 </v>
   <v>      -0.21951220       0.21951220       0.00000000 </v>
   <v>       0.24390244       0.24390244       0.00000000 </v>
   <v>       0.26829268       0.24390244       0.00000000 </v>
   <v>       0.29268293       0.24390244       0.00000000 </v>
   <v>       0.31707317       0.24390244       0.00000000 </v>
   <v>       0.34146341       0.24390244       0.00000000 </v>
   <v>       0.36585366       0.24390244       0.00000000 </v>
   <v>       0.39024390       0.24390244       0.00000000 </v>
   <v>       0.41463415       0.24390244       0.00000000 </v>
   <v>       0.43902439       0.24390244       0.00000000 </v>
   <v>       0.46341463       0.24390244       0.00000000 </v>
   <v>       0.48780488       0.24390244       0.00000000 </v>
   <v>      -0.48780488       0.24390244       0.00000000 </v>
   <v>      -0.46341463       0.24390244       0.00000000 </v>
   <v>      -0.43902439       0.24390244       0.00000000 </v>
   <v>      -0.41463415       0.24390244       0.00000000 </v>
   <v>      -0.39024390       0.24390244       0.00000000 </v>
   <v>      -0.36585366       0.24390244       0.00000000 </v>
   <v>      -0.34146341       0.24390244       0.00000000 </v>
   <v>      -0.31707317       0.24390244       0.00000000 </v>
   <v>      -0.29268293       0.24390244       0.00000000 </v>
   <v>      -0.26829268       0.24390244       0.00000000 </v>
   <v>      -0.24390244       0.24390244       0.00000000 </v>
   <v>       0.26829268       0.26829268       0.00000000 </v>
   <v>       0.29268293       0.26829268       0.00000000 </v>
   <v>       0.31707317       0.26829268       0.00000000 </v>
   <v>       0.34146341       0.26829268       0.00000000 </v>
   <v>       0.36585366       0.26829268       0.00000000 </v>
   <v>       0.39024390       0.26829268       0.00000000 </v>
   <v>       0.41463415       0.26829268       0.00000000 </v>
   <v>       0.43902439       0.26829268       0.00000000 </v>
   <v>       0.46341463       0.26829268       0.00000000 </v>
   <v>       0.48780488       0.26829268       0.00000000 </v>
   <v>      -0.48780488       0.26829268       0.00000000 </v>
   <v>      -0.46341463       0.26829268       0.00000000 </v>
   <v>      -0.43902439       0.26829268       0.00000000 </v>
   <v>      -0.41463415       0.26829268       0.00000000 </v>
   <v>      -0.39024390       0.26829268       0.00000000 </v>
   <v>      -0.36585366       0.26829268       0.00000000 </v>
   <v>      -0.34146341       0.26829268       0.00000000 </v>
   <v>      -0.31707317       0.26829268       0.00000000 </v>
   <v>      -0.29268293       0.26829268       0.00000000 </v>
   <v>      -0.26829268       0.26829268       0.00000000 </v>
   <v>       0.29268293       0.29268293       0.00000000 </v>
   <v>       0.31707317       0.29268293       0.00000000 </v>
   <v>       0.34146341       0.29268293       0.00000000 </v>
   <v>       0.36585366       0.29268293       0.00000000 </v>
   <v>       0.39024390       0.29268293       0.00000000 </v>
   <v>       0.41463415       0.29268293       0.00000000 </v>
   <v>       0.43902439       0.29268293       0.00000000 </v>
   <v>       0.46341463       0.29268293       0.00000000 </v>
   <v>       0.48780488       0.29268293       0.00000000 </v>
   <v>      -0.48780488       0.29268293       0.00000000 </v>
   <v>      -0.46341463       0.29268293       0.00000000 </v>
   <v>      -0.43902439       0.29268293       0.00000000 </v>
   <v>      -0.41463415       0.29268293       0.00000000 </v>
   <v>      -0.39024390       0.29268293       0.00000000 </v>
   <v>      -0.36585366       0.29268293       0.00000000 </v>
   <v>      -0.34146341       0.29268293       0.00000000 </v>
   <v>      -0.31707317       0.29268293       0.00000000 </v>
   <v>      -0.29268293       0.29268293       0.00000000 </v>
   <v>       0.31707317       0.31707317       0.00000000 </v>
   <v>       0.34146341       0.31707317       0.00000000 </v>
   <v>       0.36585366       0.31707317       0.00000000 </v>
   <v>       0.39024390       0.31707317       0.00000000 </v>
   <v>       0.41463415       0.31707317       0.00000000 </v>
   <v>       0.43902439       0.31707317       0.00000000 </v>
   <v>       0.46341463       0.31707317       0.00000000 </v>
   <v>       0.48780488       0.31707317       0.00000000 </v>
   <v>      -0.48780488       0.31707317       0.00000000 </v>
   <v>      -0.46341463       0.31707317       0.00000000 </v>
   <v>      -0.43902439       0.31707317       0.00000000 </v>
   <v>      -0.41463415       0.31707317       0.00000000 </v>
   <v>      -0.39024390       0.31707317       0.00000000 </v>
   <v>      -0.36585366       0.31707317       0.00000000 </v>
   <v>      -0.34146341       0.31707317       0.00000000 </v>
   <v>      -0.31707317       0.31707317       0.00000000 </v>
   <v>       0.34146341       0.34146341       0.00000000 </v>
   <v>       0.36585366       0.34146341       0.00000000 </v>
   <v>       0.39024390       0.34146341       0.00000000 </v>
   <v>       0.41463415       0.34146341       0.00000000 </v>
   <v>       0.43902439       0.34146341       0.00000000 </v>
   <v>       0.46341463       0.34146341       0.00000000 </v>
   <v>       0.48780488       0.34146341       0.00000000 </v>
   <v>      -0.48780488       0.34146341       0.00000000 </v>
   <v>      -0.46341463       0.34146341       0.00000000 </v>
   <v>      -0.43902439       0.34146341       0.00000000 </v>
   <v>      -0.41463415       0.34146341       0.00000000 </v>
   <v>      -0.39024390       0.34146341       0.00000000 </v>
   <v>      -0.36585366       0.34146341       0.00000000 </v>
   <v>      -0.34146341       0.34146341       0.00000000 </v>
   <v>       0.36585366       0.36585366       0.00000000 </v>
   <v>       0.39024390       0.36585366       0.00000000 </v>
   <v>       0.41463415       0.36585366       0.00000000 </v>
   <v>       0.43902439       0.36585366       0.00000000 </v>
   <v>       0.46341463       0.36585366       0.00000000 </v>
   <v>       0.48780488       0.36585366       0.00000000 </v>
   <v>      -0.48780488       0.36585366       0.00000000 </v>
   <v>      -0.46341463       0.36585366       0.00000000 </v>
   <v>      -0.43902439       0.36585366       0.00000000 </v>
   <v>      -0.41463415       0.36585366       0.00000000 </v>
   <v>      -0.39024390       0.36585366       0.00000000 </v>
   <v>      -0.36585366       0.36585366       0.00000000 </v>
   <v>       0.39024390       0.39024390       0.00000000 </v>
   <v>       0.41463415       0.39024390       0.00000000 </v>
   <v>       0.43902439       0.39024390       0.00000000 </v>
   <v>       0.46341463       0.39024390       0.00000000 </v>
   <v>       0.48780488       0.39024390       0.00000000 </v>
   <v>      -0.48780488       0.39024390       0.00000000 </v>
   <v>      -0.46341463       0.39024390       0.00000000 </v>
   <v>      -0.43902439       0.39024390       0.00000000 </v>
   <v>      -0.41463415       0.39024390       0.00000000 </v>
   <v>      -0.39024390       0.39024390       0.00000000 </v>
   <v>       0.41463415       0.41463415       0.00000000 </v>
   <v>       0.43902439       0.41463415       0.00000000 </v>
   <v>       0.46341463       0.41463415       0.00000000 </v>
   <v>       0.48780488       0.41463415       0.00000000 </v>
   <v>      -0.48780488       0.41463415       0.00000000 </v>
   <v>      -0.46341463       0.41463415       0.00000000 </v>
   <v>      -0.43902439       0.41463415       0.00000000 </v>
   <v>      -0.41463415       0.41463415       0.00000000 </v>
   <v>       0.43902439       0.43902439       0.00000000 </v>
   <v>       0.46341463       0.43902439       0.00000000 </v>
   <v>       0.48780488       0.43902439       0.00000000 </v>
   <v>      -0.48780488       0.43902439       0.00000000 </v>
   <v>      -0.46341463       0.43902439       0.00000000 </v>
   <v>      -0.43902439       0.43902439       0.00000000 </v>
   <v>       0.46341463       0.46341463       0.00000000 </v>
   <v>       0.48780488       0.46341463       0.00000000 </v>
   <v>      -0.48780488       0.46341463       0.00000000 </v>
   <v>      -0.46341463       0.46341463       0.00000000 </v>
   <v>       0.48780488       0.48780488       0.00000000 </v>
   <v>      -0.48780488       0.48780488       0.00000000 </v>
   <v>       0.07317073       0.04878049       0.02439024 </v>
   <v>       0.09756098       0.04878049       0.02439024 </v>
   <v>       0.12195122       0.04878049       0.02439024 </v>
   <v>       0.14634146       0.04878049       0.02439024 </v>
   <v>       0.17073171       0.04878049       0.02439024 </v>
   <v>       0.19512195       0.04878049       0.02439024 </v>
   <v>       0.21951220       0.04878049       0.02439024 </v>
   <v>       0.24390244       0.04878049       0.02439024 </v>
   <v>       0.26829268       0.04878049       0.02439024 </v>
   <v>       0.29268293       0.04878049       0.02439024 </v>
   <v>       0.31707317       0.04878049       0.02439024 </v>
   <v>       0.34146341       0.04878049       0.02439024 </v>
   <v>       0.36585366       0.04878049       0.02439024 </v>
   <v>       0.39024390       0.04878049       0.02439024 </v>
   <v>       0.41463415       0.04878049       0.02439024 </v>
   <v>       0.43902439       0.04878049       0.02439024 </v>
   <v>       0.46341463       0.04878049       0.02439024 </v>
   <v>       0.48780488       0.04878049       0.02439024 </v>
   <v>      -0.48780488       0.04878049       0.02439024 </v>
   <v>       0.09756098       0.07317073       0.02439024 </v>
   <v>       0.12195122       0.07317073       0.02439024 </v>
   <v>       0.14634146       0.07317073       0.02439024 </v>
   <v>       0.17073171       0.07317073       0.02439024 </v>
   <v>       0.19512195       0.07317073       0.02439024 </v>
   <v>       0.21951220       0.07317073       0.02439024 </v>
   <v>       0.24390244       0.07317073       0.02439024 </v>
   <v>       0.26829268       0.07317073       0.02439024 </v>
   <v>       0.29268293       0.07317073       0.02439024 </v>
   <v>       0.31707317       0.07317073       0.02439024 </v>
   <v>       0.34146341       0.07317073       0.02439024 </v>
   <v>       0.36585366       0.07317073       0.02439024 </v>
   <v>       0.39024390       0.07317073       0.02439024 </v>
   <v>       0.41463415       0.07317073       0.02439024 </v>
   <v>       0.43902439       0.07317073       0.02439024 </v>
   <v>       0.46341463       0.07317073       0.02439024 </v>
   <v>       0.48780488       0.07317073       0.02439024 </v>
   <v>      -0.48780488       0.07317073       0.02439024 </v>
   <v>      -0.46341463       0.07317073       0.02439024 </v>
   <v>      -0.43902439       0.07317073       0.02439024 </v>
   <v>      -0.41463415       0.07317073       0.02439024 </v>
   <v>      -0.39024390       0.07317073       0.02439024 </v>
   <v>      -0.36585366       0.07317073       0.02439024 </v>
   <v>      -0.34146341       0.07317073       0.02439024 </v>
   <v>      -0.31707317       0.07317073       0.02439024 </v>
   <v>      -0.29268293       0.07317073       0.02439024 </v>
   <v>      -0.26829268       0.07317073       0.02439024 </v>
   <v>      -0.24390244       0.07317073       0.02439024 </v>
   <v>      -0.21951220       0.07317073       0.02439024 </v>
   <v>      -0.19512195       0.07317073       0.02439024 </v>
   <v>      -0.17073171       0.07317073       0.02439024 </v>
   <v>      -0.14634146       0.07317073       0.02439024 </v>
   <v>      -0.12195122       0.07317073       0.02439024 </v>
   <v>      -0.09756098       0.07317073       0.02439024 </v>
   <v>      -0.07317073       0.07317073       0.02439024 </v>
   <v>      -0.04878049       0.07317073       0.02439024 </v>
   <v>       0.12195122       0.09756098       0.02439024 </v>
   <v>       0.14634146       0.09756098       0.02439024 </v>
   <v>       0.17073171       0.09756098       0.02439024 </v>
   <v>       0.19512195       0.09756098       0.02439024 </v>
   <v>       0.21951220       0.09756098       0.02439024 </v>
   <v>       0.24390244       0.09756098       0.02439024 </v>
   <v>       0.26829268       0.09756098       0.02439024 </v>
   <v>       0.29268293       0.09756098       0.02439024 </v>
   <v>       0.31707317       0.09756098       0.02439024 </v>
   <v>       0.34146341       0.09756098       0.02439024 </v>
   <v>       0.36585366       0.09756098       0.02439024 </v>
   <v>       0.39024390       0.09756098       0.02439024 </v>
   <v>       0.41463415       0.09756098       0.02439024 </v>
   <v>       0.43902439       0.09756098       0.02439024 </v>
   <v>       0.46341463       0.09756098       0.02439024 </v>
   <v>       0.48780488       0.09756098       0.02439024 </v>
   <v>      -0.48780488       0.09756098       0.02439024 </v>
   <v>      -0.46341463       0.09756098       0.02439024 </v>
   <v>      -0.43902439       0.09756098       0.02439024 </v>
   <v>      -0.41463415       0.09756098       0.02439024 </v>
   <v>      -0.39024390       0.09756098       0.02439024 </v>
   <v>      -0.36585366       0.09756098       0.02439024 </v>
   <v>      -0.34146341       0.09756098       0.02439024 </v>
   <v>      -0.31707317       0.09756098       0.02439024 </v>
   <v>      -0.29268293       0.09756098       0.02439024 </v>
   <v>      -0.26829268       0.09756098       0.02439024 </v>
   <v>      -0.24390244       0.09756098       0.02439024 </v>
   <v>      -0.21951220       0.09756098       0.02439024 </v>
   <v>      -0.19512195       0.09756098       0.02439024 </v>
   <v>      -0.17073171       0.09756098       0.02439024 </v>
   <v>      -0.14634146       0.09756098       0.02439024 </v>
   <v>      -0.12195122       0.09756098       0.02439024 </v>
   <v>      -0.09756098       0.09756098       0.02439024 </v>
   <v>      -0.07317073       0.09756098       0.02439024 </v>
   <v>       0.14634146       0.12195122       0.02439024 </v>
   <v>       0.17073171       0.12195122       0.02439024 </v>
   <v>       0.19512195       0.12195122       0.02439024 </v>
   <v>       0.21951220       0.12195122       0.02439024 </v>
   <v>       0.24390244       0.12195122       0.02439024 </v>
   <v>       0.26829268       0.12195122       0.02439024 </v>
   <v>       0.29268293       0.12195122       0.02439024 </v>
   <v>       0.31707317       0.12195122       0.02439024 </v>
   <v>       0.34146341       0.12195122       0.02439024 </v>
   <v>       0.36585366       0.12195122       0.02439024 </v>
   <v>       0.39024390       0.12195122       0.02439024 </v>
   <v>       0.41463415       0.12195122       0.02439024 </v>
   <v>       0.43902439       0.12195122       0.02439024 </v>
   <v>       0.46341463       0.12195122       0.02439024 </v>
   <v>       0.48780488       0.12195122       0.02439024 </v>
   <v>      -0.48780488       0.12195122       0.02439024 </v>
   <v>      -0.46341463       0.12195122       0.02439024 </v>
   <v>      -0.43902439       0.12195122       0.02439024 </v>
   <v>      -0.41463415       0.12195122       0.02439024 </v>
   <v>      -0.39024390       0.12195122       0.02439024 </v>
   <v>      -0.36585366       0.12195122       0.02439024 </v>
   <v>      -0.34146341       0.12195122       0.02439024 </v>
   <v>      -0.31707317       0.12195122       0.02439024 </v>
   <v>      -0.29268293       0.12195122       0.02439024 </v>
   <v>      -0.26829268       0.12195122       0.02439024 </v>
   <v>      -0.24390244       0.12195122       0.02439024 </v>
   <v>      -0.21951220       0.12195122       0.02439024 </v>
   <v>      -0.19512195       0.12195122       0.02439024 </v>
   <v>      -0.17073171       0.12195122       0.02439024 </v>
   <v>      -0.14634146       0.12195122       0.02439024 </v>
   <v>      -0.12195122       0.12195122       0.02439024 </v>
   <v>      -0.09756098       0.12195122       0.02439024 </v>
   <v>       0.17073171       0.14634146       0.02439024 </v>
   <v>       0.19512195       0.14634146       0.02439024 </v>
   <v>       0.21951220       0.14634146       0.02439024 </v>
   <v>       0.24390244       0.14634146       0.02439024 </v>
   <v>       0.26829268       0.14634146       0.02439024 </v>
   <v>       0.29268293       0.14634146       0.02439024 </v>
   <v>       0.31707317       0.14634146       0.02439024 </v>
   <v>       0.34146341       0.14634146       0.02439024 </v>
   <v>       0.36585366       0.14634146       0.02439024 </v>
   <v>       0.39024390       0.14634146       0.02439024 </v>
   <v>       0.41463415       0.14634146       0.02439024 </v>
   <v>       0.43902439       0.14634146       0.02439024 </v>
   <v>       0.46341463       0.14634146       0.02439024 </v>
   <v>       0.48780488       0.14634146       0.02439024 </v>
   <v>      -0.48780488       0.14634146       0.02439024 </v>
   <v>      -0.46341463       0.14634146       0.02439024 </v>
   <v>      -0.43902439       0.14634146       0.02439024 </v>
   <v>      -0.41463415       0.14634146       0.02439024 </v>
   <v>      -0.39024390       0.14634146       0.02439024 </v>
   <v>      -0.36585366       0.14634146       0.02439024 </v>
   <v>      -0.34146341       0.14634146       0.02439024 </v>
   <v>      -0.31707317       0.14634146       0.02439024 </v>
   <v>      -0.29268293       0.14634146       0.02439024 </v>
   <v>      -0.26829268       0.14634146       0.02439024 </v>
   <v>      -0.24390244       0.14634146       0.02439024 </v>
   <v>      -0.21951220       0.14634146       0.02439024 </v>
   <v>      -0.19512195       0.14634146       0.02439024 </v>
   <v>      -0.17073171       0.14634146       0.02439024 </v>
   <v>      -0.14634146       0.14634146       0.02439024 </v>
   <v>      -0.12195122       0.14634146       0.02439024 </v>
   <v>       0.19512195       0.17073171       0.02439024 </v>
   <v>       0.21951220       0.17073171       0.02439024 </v>
   <v>       0.24390244       0.17073171       0.02439024 </v>
   <v>       0.26829268       0.17073171       0.02439024 </v>
   <v>       0.29268293       0.17073171       0.02439024 </v>
   <v>       0.31707317       0.17073171       0.02439024 </v>
   <v>       0.34146341       0.17073171       0.02439024 </v>
   <v>       0.36585366       0.17073171       0.02439024 </v>
   <v>       0.39024390       0.17073171       0.02439024 </v>
   <v>       0.41463415       0.17073171       0.02439024 </v>
   <v>       0.43902439       0.17073171       0.02439024 </v>
   <v>       0.46341463       0.17073171       0.02439024 </v>
   <v>       0.48780488       0.17073171       0.02439024 </v>
   <v>      -0.48780488       0.17073171       0.02439024 </v>
   <v>      -0.46341463       0.17073171       0.02439024 </v>
   <v>      -0.43902439       0.17073171       0.02439024 </v>
   <v>      -0.41463415       0.17073171       0.02439024 </v>
   <v>      -0.39024390       0.17073171       0.02439024 </v>
   <v>      -0.36585366       0.17073171       0.02439024 </v>
   <v>      -0.34146341       0.17073171       0.02439024 </v>
   <v>      -0.31707317       0.17073171       0.02439024 </v>
   <v>      -0.29268293       0.17073171       0.02439024 </v>
   <v>      -0.26829268       0.17073171       0.02439024 </v>
   <v>      -0.24390244       0.17073171       0.02439024 </v>
   <v>      -0.21951220       0.17073171       0.02439024 </v>
   <v>      -0.19512195       0.17073171       0.02439024 </v>
   <v>      -0.17073171       0.17073171       0.02439024 </v>
   <v>      -0.14634146       0.17073171       0.02439024 </v>
   <v>       0.21951220       0.19512195       0.02439024 </v>
   <v>       0.24390244       0.19512195       0.02439024 </v>
   <v>       0.26829268       0.19512195       0.02439024 </v>
   <v>       0.29268293       0.19512195       0.02439024 </v>
   <v>       0.31707317       0.19512195       0.02439024 </v>
   <v>       0.34146341       0.19512195       0.02439024 </v>
   <v>       0.36585366       0.19512195       0.02439024 </v>
   <v>       0.39024390       0.19512195       0.02439024 </v>
   <v>       0.41463415       0.19512195       0.02439024 </v>
   <v>       0.43902439       0.19512195       0.02439024 </v>
   <v>       0.46341463       0.19512195       0.02439024 </v>
   <v>       0.48780488       0.19512195       0.02439024 </v>
   <v>      -0.48780488       0.19512195       0.02439024 </v>
   <v>      -0.46341463       0.19512195       0.02439024 </v>
   <v>      -0.43902439       0.19512195       0.02439024 </v>
   <v>      -0.41463415       0.19512195       0.02439024 </v>
   <v>      -0.39024390       0.19512195       0.02439024 </v>
   <v>      -0.36585366       0.19512195       0.02439024 </v>
   <v>      -0.34146341       0.19512195       0.02439024 </v>
   <v>      -0.31707317       0.19512195       0.02439024 </v>
   <v>      -0.29268293       0.19512195       0.02439024 </v>
   <v>      -0.26829268       0.19512195       0.02439024 </v>
   <v>      -0.24390244       0.19512195       0.02439024 </v>
   <v>      -0.21951220       0.19512195       0.02439024 </v>
   <v>      -0.19512195       0.19512195       0.02439024 </v>
   <v>      -0.17073171       0.19512195       0.02439024 </v>
   <v>       0.24390244       0.21951220       0.02439024 </v>
   <v>       0.26829268       0.21951220       0.02439024 </v>
   <v>       0.29268293       0.21951220       0.02439024 </v>
   <v>       0.31707317       0.21951220       0.02439024 </v>
   <v>       0.34146341       0.21951220       0.02439024 </v>
   <v>       0.36585366       0.21951220       0.02439024 </v>
   <v>       0.39024390       0.21951220       0.02439024 </v>
   <v>       0.41463415       0.21951220       0.02439024 </v>
   <v>       0.43902439       0.21951220       0.02439024 </v>
   <v>       0.46341463       0.21951220       0.02439024 </v>
   <v>       0.48780488       0.21951220       0.02439024 </v>
   <v>      -0.48780488       0.21951220       0.02439024 </v>
   <v>      -0.46341463       0.21951220       0.02439024 </v>
   <v>      -0.43902439       0.21951220       0.02439024 </v>
   <v>      -0.41463415       0.21951220       0.02439024 </v>
   <v>      -0.39024390       0.21951220       0.02439024 </v>
   <v>      -0.36585366       0.21951220       0.02439024 </v>
   <v>      -0.34146341       0.21951220       0.02439024 </v>
   <v>      -0.31707317       0.21951220       0.02439024 </v>
   <v>      -0.29268293       0.21951220       0.02439024 </v>
   <v>      -0.26829268       0.21951220       0.02439024 </v>
   <v>      -0.24390244       0.21951220       0.02439024 </v>
   <v>      -0.21951220       0.21951220       0.02439024 </v>
   <v>      -0.19512195       0.21951220       0.02439024 </v>
   <v>       0.26829268       0.24390244       0.02439024 </v>
   <v>       0.29268293       0.24390244       0.02439024 </v>
   <v>       0.31707317       0.24390244       0.02439024 </v>
   <v>       0.34146341       0.24390244       0.02439024 </v>
   <v>       0.36585366       0.24390244       0.02439024 </v>
   <v>       0.39024390       0.24390244       0.02439024 </v>
   <v>       0.41463415       0.24390244       0.02439024 </v>
   <v>       0.43902439       0.24390244       0.02439024 </v>
   <v>       0.46341463       0.24390244       0.02439024 </v>
   <v>       0.48780488       0.24390244       0.02439024 </v>
   <v>      -0.48780488       0.24390244       0.02439024 </v>
   <v>      -0.46341463       0.24390244       0.02439024 </v>
   <v>      -0.43902439       0.24390244       0.02439024 </v>
   <v>      -0.41463415       0.24390244       0.02439024 </v>
   <v>      -0.39024390       0.24390244       0.02439024 </v>
   <v>      -0.36585366       0.24390244       0.02439024 </v>
   <v>      -0.34146341       0.24390244       0.02439024 </v>
   <v>      -0.31707317       0.24390244       0.02439024 </v>
   <v>      -0.29268293       0.24390244       0.02439024 </v>
   <v>      -0.26829268       0.24390244       0.02439024 </v>
   <v>      -0.24390244       0.24390244       0.02439024 </v>
   <v>      -0.21951220       0.24390244       0.02439024 </v>
   <v>       0.29268293       0.26829268       0.02439024 </v>
   <v>       0.31707317       0.26829268       0.02439024 </v>
   <v>       0.34146341       0.26829268       0.02439024 </v>
   <v>       0.36585366       0.26829268       0.02439024 </v>
   <v>       0.39024390       0.26829268       0.02439024 </v>
   <v>       0.41463415       0.26829268       0.02439024 </v>
   <v>       0.43902439       0.26829268       0.02439024 </v>
   <v>       0.46341463       0.26829268       0.02439024 </v>
   <v>       0.48780488       0.26829268       0.02439024 </v>
   <v>      -0.48780488       0.26829268       0.02439024 </v>
   <v>      -0.46341463       0.26829268       0.02439024 </v>
   <v>      -0.43902439       0.26829268       0.02439024 </v>
   <v>      -0.41463415       0.26829268       0.02439024 </v>
   <v>      -0.39024390       0.26829268       0.02439024 </v>
   <v>      -0.36585366       0.26829268       0.02439024 </v>
   <v>      -0.34146341       0.26829268       0.02439024 </v>
   <v>      -0.31707317       0.26829268       0.02439024 </v>
   <v>      -0.29268293       0.26829268       0.02439024 </v>
   <v>      -0.26829268       0.26829268       0.02439024 </v>
   <v>      -0.24390244       0.26829268       0.02439024 </v>
   <v>       0.31707317       0.29268293       0.02439024 </v>
   <v>       0.34146341       0.29268293       0.02439024 </v>
   <v>       0.36585366       0.29268293       0.02439024 </v>
   <v>       0.39024390       0.29268293       0.02439024 </v>
   <v>       0.41463415       0.29268293       0.02439024 </v>
   <v>       0.43902439       0.29268293       0.02439024 </v>
   <v>       0.46341463       0.29268293       0.02439024 </v>
   <v>       0.48780488       0.29268293       0.02439024 </v>
   <v>      -0.48780488       0.29268293       0.02439024 </v>
   <v>      -0.46341463       0.29268293       0.02439024 </v>
   <v>      -0.43902439       0.29268293       0.02439024 </v>
   <v>      -0.41463415       0.29268293       0.02439024 </v>
   <v>      -0.39024390       0.29268293       0.02439024 </v>
   <v>      -0.36585366       0.29268293       0.02439024 </v>
   <v>      -0.34146341       0.29268293       0.02439024 </v>
   <v>      -0.31707317       0.29268293       0.02439024 </v>
   <v>      -0.29268293       0.29268293       0.02439024 </v>
   <v>      -0.26829268       0.29268293       0.02439024 </v>
   <v>       0.34146341       0.31707317       0.02439024 </v>
   <v>       0.36585366       0.31707317       0.02439024 </v>
   <v>       0.39024390       0.31707317       0.02439024 </v>
   <v>       0.41463415       0.31707317       0.02439024 </v>
   <v>       0.43902439       0.31707317       0.02439024 </v>
   <v>       0.46341463       0.31707317       0.02439024 </v>
   <v>       0.48780488       0.31707317       0.02439024 </v>
   <v>      -0.48780488       0.31707317       0.02439024 </v>
   <v>      -0.46341463       0.31707317       0.02439024 </v>
   <v>      -0.43902439       0.31707317       0.02439024 </v>
   <v>      -0.41463415       0.31707317       0.02439024 </v>
   <v>      -0.39024390       0.31707317       0.02439024 </v>
   <v>      -0.36585366       0.31707317       0.02439024 </v>
   <v>      -0.34146341       0.31707317       0.02439024 </v>
   <v>      -0.31707317       0.31707317       0.02439024 </v>
   <v>      -0.29268293       0.31707317       0.02439024 </v>
   <v>       0.36585366       0.34146341       0.02439024 </v>
   <v>       0.39024390       0.34146341       0.02439024 </v>
   <v>       0.41463415       0.34146341       0.02439024 </v>
   <v>       0.43902439       0.34146341       0.02439024 </v>
   <v>       0.46341463       0.34146341       0.02439024 </v>
   <v>       0.48780488       0.34146341       0.02439024 </v>
   <v>      -0.48780488       0.34146341       0.02439024 </v>
   <v>      -0.46341463       0.34146341       0.02439024 </v>
   <v>      -0.43902439       0.34146341       0.02439024 </v>
   <v>      -0.41463415       0.34146341       0.02439024 </v>
   <v>      -0.39024390       0.34146341       0.02439024 </v>
   <v>      -0.36585366       0.34146341       0.02439024 </v>
   <v>      -0.34146341       0.34146341       0.02439024 </v>
   <v>      -0.31707317       0.34146341       0.02439024 </v>
   <v>       0.39024390       0.36585366       0.02439024 </v>
   <v>       0.41463415       0.36585366       0.02439024 </v>
   <v>       0.43902439       0.36585366       0.02439024 </v>
   <v>       0.46341463       0.36585366       0.02439024 </v>
   <v>       0.48780488       0.36585366       0.02439024 </v>
   <v>      -0.48780488       0.36585366       0.02439024 </v>
   <v>      -0.46341463       0.36585366       0.02439024 </v>
   <v>      -0.43902439       0.36585366       0.02439024 </v>
   <v>      -0.41463415       0.36585366       0.02439024 </v>
   <v>      -0.39024390       0.36585366       0.02439024 </v>
   <v>      -0.36585366       0.36585366       0.02439024 </v>
   <v>      -0.34146341       0.36585366       0.02439024 </v>
   <v>       0.41463415       0.39024390       0.02439024 </v>
   <v>       0.43902439       0.39024390       0.02439024 </v>
   <v>       0.46341463       0.39024390       0.02439024 </v>
   <v>       0.48780488       0.39024390       0.02439024 </v>
   <v>      -0.48780488       0.39024390       0.02439024 </v>
   <v>      -0.46341463       0.39024390       0.02439024 </v>
   <v>      -0.43902439       0.39024390       0.02439024 </v>
   <v>      -0.41463415       0.39024390       0.02439024 </v>
   <v>      -0.39024390       0.39024390       0.02439024 </v>
   <v>      -0.36585366       0.39024390       0.02439024 </v>
   <v>       0.43902439       0.41463415       0.02439024 </v>
   <v>       0.46341463       0.41463415       0.02439024 </v>
   <v>       0.48780488       0.41463415       0.02439024 </v>
   <v>      -0.48780488       0.41463415       0.02439024 </v>
   <v>      -0.46341463       0.41463415       0.02439024 </v>
   <v>      -0.43902439       0.41463415       0.02439024 </v>
   <v>      -0.41463415       0.41463415       0.02439024 </v>
   <v>      -0.39024390       0.41463415       0.02439024 </v>
   <v>       0.46341463       0.43902439       0.02439024 </v>
   <v>       0.48780488       0.43902439       0.02439024 </v>
   <v>      -0.48780488       0.43902439       0.02439024 </v>
   <v>      -0.46341463       0.43902439       0.02439024 </v>
   <v>      -0.43902439       0.43902439       0.02439024 </v>
   <v>      -0.41463415       0.43902439       0.02439024 </v>
   <v>       0.48780488       0.46341463       0.02439024 </v>
   <v>      -0.48780488       0.46341463       0.02439024 </v>
   <v>      -0.46341463       0.46341463       0.02439024 </v>
   <v>      -0.43902439       0.46341463       0.02439024 </v>
   <v>      -0.48780488       0.48780488       0.02439024 </v>
   <v>      -0.46341463       0.48780488       0.02439024 </v>
   <v>       0.14634146       0.09756098       0.04878049 </v>
   <v>       0.17073171       0.09756098       0.04878049 </v>
   <v>       0.19512195       0.09756098       0.04878049 </v>
   <v>       0.21951220       0.09756098       0.04878049 </v>
   <v>       0.24390244       0.09756098       0.04878049 </v>
   <v>       0.26829268       0.09756098       0.04878049 </v>
   <v>       0.29268293       0.09756098       0.04878049 </v>
   <v>       0.31707317       0.09756098       0.04878049 </v>
   <v>       0.34146341       0.09756098       0.04878049 </v>
   <v>       0.36585366       0.09756098       0.04878049 </v>
   <v>       0.39024390       0.09756098       0.04878049 </v>
   <v>       0.41463415       0.09756098       0.04878049 </v>
   <v>       0.43902439       0.09756098       0.04878049 </v>
   <v>       0.46341463       0.09756098       0.04878049 </v>
   <v>       0.48780488       0.09756098       0.04878049 </v>
   <v>      -0.48780488       0.09756098       0.04878049 </v>
   <v>      -0.46341463       0.09756098       0.04878049 </v>
   <v>       0.17073171       0.12195122       0.04878049 </v>
   <v>       0.19512195       0.12195122       0.04878049 </v>
   <v>       0.21951220       0.12195122       0.04878049 </v>
   <v>       0.24390244       0.12195122       0.04878049 </v>
   <v>       0.26829268       0.12195122       0.04878049 </v>
   <v>       0.29268293       0.12195122       0.04878049 </v>
   <v>       0.31707317       0.12195122       0.04878049 </v>
   <v>       0.34146341       0.12195122       0.04878049 </v>
   <v>       0.36585366       0.12195122       0.04878049 </v>
   <v>       0.39024390       0.12195122       0.04878049 </v>
   <v>       0.41463415       0.12195122       0.04878049 </v>
   <v>       0.43902439       0.12195122       0.04878049 </v>
   <v>       0.46341463       0.12195122       0.04878049 </v>
   <v>       0.48780488       0.12195122       0.04878049 </v>
   <v>      -0.48780488       0.12195122       0.04878049 </v>
   <v>      -0.46341463       0.12195122       0.04878049 </v>
   <v>      -0.43902439       0.12195122       0.04878049 </v>
   <v>      -0.41463415       0.12195122       0.04878049 </v>
   <v>      -0.39024390       0.12195122       0.04878049 </v>
   <v>      -0.36585366       0.12195122       0.04878049 </v>
   <v>      -0.34146341       0.12195122       0.04878049 </v>
   <v>      -0.31707317       0.12195122       0.04878049 </v>
   <v>      -0.29268293       0.12195122       0.04878049 </v>
   <v>      -0.26829268       0.12195122       0.04878049 </v>
   <v>      -0.24390244       0.12195122       0.04878049 </v>
   <v>      -0.21951220       0.12195122       0.04878049 </v>
   <v>      -0.19512195       0.12195122       0.04878049 </v>
   <v>      -0.17073171       0.12195122       0.04878049 </v>
   <v>      -0.14634146       0.12195122       0.04878049 </v>
   <v>      -0.12195122       0.12195122       0.04878049 </v>
   <v>      -0.09756098       0.12195122       0.04878049 </v>
   <v>      -0.07317073       0.12195122       0.04878049 </v>
   <v>       0.19512195       0.14634146       0.04878049 </v>
   <v>       0.21951220       0.14634146       0.04878049 </v>
   <v>       0.24390244       0.14634146       0.04878049 </v>
   <v>       0.26829268       0.14634146       0.04878049 </v>
   <v>       0.29268293       0.14634146       0.04878049 </v>
   <v>       0.31707317       0.14634146       0.04878049 </v>
   <v>       0.34146341       0.14634146       0.04878049 </v>
   <v>       0.36585366       0.14634146       0.04878049 </v>
   <v>       0.39024390       0.14634146       0.04878049 </v>
   <v>       0.41463415       0.14634146       0.04878049 </v>
   <v>       0.43902439       0.14634146       0.04878049 </v>
   <v>       0.46341463       0.14634146       0.04878049 </v>
   <v>       0.48780488       0.14634146       0.04878049 </v>
   <v>      -0.48780488       0.14634146       0.04878049 </v>
   <v>      -0.46341463       0.14634146       0.04878049 </v>
   <v>      -0.43902439       0.14634146       0.04878049 </v>
   <v>      -0.41463415       0.14634146       0.04878049 </v>
   <v>      -0.39024390       0.14634146       0.04878049 </v>
   <v>      -0.36585366       0.14634146       0.04878049 </v>
   <v>      -0.34146341       0.14634146       0.04878049 </v>
   <v>      -0.31707317       0.14634146       0.04878049 </v>
   <v>      -0.29268293       0.14634146       0.04878049 </v>
   <v>      -0.26829268       0.14634146       0.04878049 </v>
   <v>      -0.24390244       0.14634146       0.04878049 </v>
   <v>      -0.21951220       0.14634146       0.04878049 </v>
   <v>      -0.19512195       0.14634146       0.04878049 </v>
   <v>      -0.17073171       0.14634146       0.04878049 </v>
   <v>      -0.14634146       0.14634146       0.04878049 </v>
   <v>      -0.12195122       0.14634146       0.04878049 </v>
   <v>      -0.09756098       0.14634146       0.04878049 </v>
   <v>       0.21951220       0.17073171       0.04878049 </v>
   <v>       0.24390244       0.17073171       0.04878049 </v>
   <v>       0.26829268       0.17073171       0.04878049 </v>
   <v>       0.29268293       0.17073171       0.04878049 </v>
   <v>       0.31707317       0.17073171       0.04878049 </v>
   <v>       0.34146341       0.17073171       0.04878049 </v>
   <v>       0.36585366       0.17073171       0.04878049 </v>
   <v>       0.39024390       0.17073171       0.04878049 </v>
   <v>       0.41463415       0.17073171       0.04878049 </v>
   <v>       0.43902439       0.17073171       0.04878049 </v>
   <v>       0.46341463       0.17073171       0.04878049 </v>
   <v>       0.48780488       0.17073171       0.04878049 </v>
   <v>      -0.48780488       0.17073171       0.04878049 </v>
   <v>      -0.46341463       0.17073171       0.04878049 </v>
   <v>      -0.43902439       0.17073171       0.04878049 </v>
   <v>      -0.41463415       0.17073171       0.04878049 </v>
   <v>      -0.39024390       0.17073171       0.04878049 </v>
   <v>      -0.36585366       0.17073171       0.04878049 </v>
   <v>      -0.34146341       0.17073171       0.04878049 </v>
   <v>      -0.31707317       0.17073171       0.04878049 </v>
   <v>      -0.29268293       0.17073171       0.04878049 </v>
   <v>      -0.26829268       0.17073171       0.04878049 </v>
   <v>      -0.24390244       0.17073171       0.04878049 </v>
   <v>      -0.21951220       0.17073171       0.04878049 </v>
   <v>      -0.19512195       0.17073171       0.04878049 </v>
   <v>      -0.17073171       0.17073171       0.04878049 </v>
   <v>      -0.14634146       0.17073171       0.04878049 </v>
   <v>      -0.12195122       0.17073171       0.04878049 </v>
   <v>       0.24390244       0.19512195       0.04878049 </v>
   <v>       0.26829268       0.19512195       0.04878049 </v>
   <v>       0.29268293       0.19512195       0.04878049 </v>
   <v>       0.31707317       0.19512195       0.04878049 </v>
   <v>       0.34146341       0.19512195       0.04878049 </v>
   <v>       0.36585366       0.19512195       0.04878049 </v>
   <v>       0.39024390       0.19512195       0.04878049 </v>
   <v>       0.41463415       0.19512195       0.04878049 </v>
   <v>       0.43902439       0.19512195       0.04878049 </v>
   <v>       0.46341463       0.19512195       0.04878049 </v>
   <v>       0.48780488       0.19512195       0.04878049 </v>
   <v>      -0.48780488       0.19512195       0.04878049 </v>
   <v>      -0.46341463       0.19512195       0.04878049 </v>
   <v>      -0.43902439       0.19512195       0.04878049 </v>
   <v>      -0.41463415       0.19512195       0.04878049 </v>
   <v>      -0.39024390       0.19512195       0.04878049 </v>
   <v>      -0.36585366       0.19512195       0.04878049 </v>
   <v>      -0.34146341       0.19512195       0.04878049 </v>
   <v>      -0.31707317       0.19512195       0.04878049 </v>
   <v>      -0.29268293       0.19512195       0.04878049 </v>
   <v>      -0.26829268       0.19512195       0.04878049 </v>
   <v>      -0.24390244       0.19512195       0.04878049 </v>
   <v>      -0.21951220       0.19512195       0.04878049 </v>
   <v>      -0.19512195       0.19512195       0.04878049 </v>
   <v>      -0.17073171       0.19512195       0.04878049 </v>
   <v>      -0.14634146       0.19512195       0.04878049 </v>
   <v>       0.26829268       0.21951220       0.04878049 </v>
   <v>       0.29268293       0.21951220       0.04878049 </v>
   <v>       0.31707317       0.21951220       0.04878049 </v>
   <v>       0.34146341       0.21951220       0.04878049 </v>
   <v>       0.36585366       0.21951220       0.04878049 </v>
   <v>       0.39024390       0.21951220       0.04878049 </v>
   <v>       0.41463415       0.21951220       0.04878049 </v>
   <v>       0.43902439       0.21951220       0.04878049 </v>
   <v>       0.46341463       0.21951220       0.04878049 </v>
   <v>       0.48780488       0.21951220       0.04878049 </v>
   <v>      -0.48780488       0.21951220       0.04878049 </v>
   <v>      -0.46341463       0.21951220       0.04878049 </v>
   <v>      -0.43902439       0.21951220       0.04878049 </v>
   <v>      -0.41463415       0.21951220       0.04878049 </v>
   <v>      -0.39024390       0.21951220       0.04878049 </v>
   <v>      -0.36585366       0.21951220       0.04878049 </v>
   <v>      -0.34146341       0.21951220       0.04878049 </v>
   <v>      -0.31707317       0.21951220       0.04878049 </v>
   <v>      -0.29268293       0.21951220       0.04878049 </v>
   <v>      -0.26829268       0.21951220       0.04878049 </v>
   <v>      -0.24390244       0.21951220       0.04878049 </v>
   <v>      -0.21951220       0.21951220       0.04878049 </v>
   <v>      -0.19512195       0.21951220       0.04878049 </v>
   <v>      -0.17073171       0.21951220       0.04878049 </v>
   <v>       0.29268293       0.24390244       0.04878049 </v>
   <v>       0.31707317       0.24390244       0.04878049 </v>
   <v>       0.34146341       0.24390244       0.04878049 </v>
   <v>       0.36585366       0.24390244       0.04878049 </v>
   <v>       0.39024390       0.24390244       0.04878049 </v>
   <v>       0.41463415       0.24390244       0.04878049 </v>
   <v>       0.43902439       0.24390244       0.04878049 </v>
   <v>       0.46341463       0.24390244       0.04878049 </v>
   <v>       0.48780488       0.24390244       0.04878049 </v>
   <v>      -0.48780488       0.24390244       0.04878049 </v>
   <v>      -0.46341463       0.24390244       0.04878049 </v>
   <v>      -0.43902439       0.24390244       0.04878049 </v>
   <v>      -0.41463415       0.24390244       0.04878049 </v>
   <v>      -0.39024390       0.24390244       0.04878049 </v>
   <v>      -0.36585366       0.24390244       0.04878049 </v>
   <v>      -0.34146341       0.24390244       0.04878049 </v>
   <v>      -0.31707317       0.24390244       0.04878049 </v>
   <v>      -0.29268293       0.24390244       0.04878049 </v>
   <v>      -0.26829268       0.24390244       0.04878049 </v>
   <v>      -0.24390244       0.24390244       0.04878049 </v>
   <v>      -0.21951220       0.24390244       0.04878049 </v>
   <v>      -0.19512195       0.24390244       0.04878049 </v>
   <v>       0.31707317       0.26829268       0.04878049 </v>
   <v>       0.34146341       0.26829268       0.04878049 </v>
   <v>       0.36585366       0.26829268       0.04878049 </v>
   <v>       0.39024390       0.26829268       0.04878049 </v>
   <v>       0.41463415       0.26829268       0.04878049 </v>
   <v>       0.43902439       0.26829268       0.04878049 </v>
   <v>       0.46341463       0.26829268       0.04878049 </v>
   <v>       0.48780488       0.26829268       0.04878049 </v>
   <v>      -0.48780488       0.26829268       0.04878049 </v>
   <v>      -0.46341463       0.26829268       0.04878049 </v>
   <v>      -0.43902439       0.26829268       0.04878049 </v>
   <v>      -0.41463415       0.26829268       0.04878049 </v>
   <v>      -0.39024390       0.26829268       0.04878049 </v>
   <v>      -0.36585366       0.26829268       0.04878049 </v>
   <v>      -0.34146341       0.26829268       0.04878049 </v>
   <v>      -0.31707317       0.26829268       0.04878049 </v>
   <v>      -0.29268293       0.26829268       0.04878049 </v>
   <v>      -0.26829268       0.26829268       0.04878049 </v>
   <v>      -0.24390244       0.26829268       0.04878049 </v>
   <v>      -0.21951220       0.26829268       0.04878049 </v>
   <v>       0.34146341       0.29268293       0.04878049 </v>
   <v>       0.36585366       0.29268293       0.04878049 </v>
   <v>       0.39024390       0.29268293       0.04878049 </v>
   <v>       0.41463415       0.29268293       0.04878049 </v>
   <v>       0.43902439       0.29268293       0.04878049 </v>
   <v>       0.46341463       0.29268293       0.04878049 </v>
   <v>       0.48780488       0.29268293       0.04878049 </v>
   <v>      -0.48780488       0.29268293       0.04878049 </v>
   <v>      -0.46341463       0.29268293       0.04878049 </v>
   <v>      -0.43902439       0.29268293       0.04878049 </v>
   <v>      -0.41463415       0.29268293       0.04878049 </v>
   <v>      -0.39024390       0.29268293       0.04878049 </v>
   <v>      -0.36585366       0.29268293       0.04878049 </v>
   <v>      -0.34146341       0.29268293       0.04878049 </v>
   <v>      -0.31707317       0.29268293       0.04878049 </v>
   <v>      -0.29268293       0.29268293       0.04878049 </v>
   <v>      -0.26829268       0.29268293       0.04878049 </v>
   <v>      -0.24390244       0.29268293       0.04878049 </v>
   <v>       0.36585366       0.31707317       0.04878049 </v>
   <v>       0.39024390       0.31707317       0.04878049 </v>
   <v>       0.41463415       0.31707317       0.04878049 </v>
   <v>       0.43902439       0.31707317       0.04878049 </v>
   <v>       0.46341463       0.31707317       0.04878049 </v>
   <v>       0.48780488       0.31707317       0.04878049 </v>
   <v>      -0.48780488       0.31707317       0.04878049 </v>
   <v>      -0.46341463       0.31707317       0.04878049 </v>
   <v>      -0.43902439       0.31707317       0.04878049 </v>
   <v>      -0.41463415       0.31707317       0.04878049 </v>
   <v>      -0.39024390       0.31707317       0.04878049 </v>
   <v>      -0.36585366       0.31707317       0.04878049 </v>
   <v>      -0.34146341       0.31707317       0.04878049 </v>
   <v>      -0.31707317       0.31707317       0.04878049 </v>
   <v>      -0.29268293       0.31707317       0.04878049 </v>
   <v>      -0.26829268       0.31707317       0.04878049 </v>
   <v>       0.39024390       0.34146341       0.04878049 </v>
   <v>       0.41463415       0.34146341       0.04878049 </v>
   <v>       0.43902439       0.34146341       0.04878049 </v>
   <v>       0.46341463       0.34146341       0.04878049 </v>
   <v>       0.48780488       0.34146341       0.04878049 </v>
   <v>      -0.48780488       0.34146341       0.04878049 </v>
   <v>      -0.46341463       0.34146341       0.04878049 </v>
   <v>      -0.43902439       0.34146341       0.04878049 </v>
   <v>      -0.41463415       0.34146341       0.04878049 </v>
   <v>      -0.39024390       0.34146341       0.04878049 </v>
   <v>      -0.36585366       0.34146341       0.04878049 </v>
   <v>      -0.34146341       0.34146341       0.04878049 </v>
   <v>      -0.31707317       0.34146341       0.04878049 </v>
   <v>      -0.29268293       0.34146341       0.04878049 </v>
   <v>       0.41463415       0.36585366       0.04878049 </v>
   <v>       0.43902439       0.36585366       0.04878049 </v>
   <v>       0.46341463       0.36585366       0.04878049 </v>
   <v>       0.48780488       0.36585366       0.04878049 </v>
   <v>      -0.48780488       0.36585366       0.04878049 </v>
   <v>      -0.46341463       0.36585366       0.04878049 </v>
   <v>      -0.43902439       0.36585366       0.04878049 </v>
   <v>      -0.41463415       0.36585366       0.04878049 </v>
   <v>      -0.39024390       0.36585366       0.04878049 </v>
   <v>      -0.36585366       0.36585366       0.04878049 </v>
   <v>      -0.34146341       0.36585366       0.04878049 </v>
   <v>      -0.31707317       0.36585366       0.04878049 </v>
   <v>       0.43902439       0.39024390       0.04878049 </v>
   <v>       0.46341463       0.39024390       0.04878049 </v>
   <v>       0.48780488       0.39024390       0.04878049 </v>
   <v>      -0.48780488       0.39024390       0.04878049 </v>
   <v>      -0.46341463       0.39024390       0.04878049 </v>
   <v>      -0.43902439       0.39024390       0.04878049 </v>
   <v>      -0.41463415       0.39024390       0.04878049 </v>
   <v>      -0.39024390       0.39024390       0.04878049 </v>
   <v>      -0.36585366       0.39024390       0.04878049 </v>
   <v>      -0.34146341       0.39024390       0.04878049 </v>
   <v>       0.46341463       0.41463415       0.04878049 </v>
   <v>       0.48780488       0.41463415       0.04878049 </v>
   <v>      -0.48780488       0.41463415       0.04878049 </v>
   <v>      -0.46341463       0.41463415       0.04878049 </v>
   <v>      -0.43902439       0.41463415       0.04878049 </v>
   <v>      -0.41463415       0.41463415       0.04878049 </v>
   <v>      -0.39024390       0.41463415       0.04878049 </v>
   <v>      -0.36585366       0.41463415       0.04878049 </v>
   <v>       0.48780488       0.43902439       0.04878049 </v>
   <v>      -0.48780488       0.43902439       0.04878049 </v>
   <v>      -0.46341463       0.43902439       0.04878049 </v>
   <v>      -0.43902439       0.43902439       0.04878049 </v>
   <v>      -0.41463415       0.43902439       0.04878049 </v>
   <v>      -0.39024390       0.43902439       0.04878049 </v>
   <v>      -0.48780488       0.46341463       0.04878049 </v>
   <v>      -0.46341463       0.46341463       0.04878049 </v>
   <v>      -0.43902439       0.46341463       0.04878049 </v>
   <v>      -0.41463415       0.46341463       0.04878049 </v>
   <v>      -0.46341463       0.48780488       0.04878049 </v>
   <v>      -0.43902439       0.48780488       0.04878049 </v>
   <v>       0.21951220       0.14634146       0.07317073 </v>
   <v>       0.24390244       0.14634146       0.07317073 </v>
   <v>       0.26829268       0.14634146       0.07317073 </v>
   <v>       0.29268293       0.14634146       0.07317073 </v>
   <v>       0.31707317       0.14634146       0.07317073 </v>
   <v>       0.34146341       0.14634146       0.07317073 </v>
   <v>       0.36585366       0.14634146       0.07317073 </v>
   <v>       0.39024390       0.14634146       0.07317073 </v>
   <v>       0.41463415       0.14634146       0.07317073 </v>
   <v>       0.43902439       0.14634146       0.07317073 </v>
   <v>       0.46341463       0.14634146       0.07317073 </v>
   <v>       0.48780488       0.14634146       0.07317073 </v>
   <v>      -0.48780488       0.14634146       0.07317073 </v>
   <v>      -0.46341463       0.14634146       0.07317073 </v>
   <v>      -0.43902439       0.14634146       0.07317073 </v>
   <v>       0.24390244       0.17073171       0.07317073 </v>
   <v>       0.26829268       0.17073171       0.07317073 </v>
   <v>       0.29268293       0.17073171       0.07317073 </v>
   <v>       0.31707317       0.17073171       0.07317073 </v>
   <v>       0.34146341       0.17073171       0.07317073 </v>
   <v>       0.36585366       0.17073171       0.07317073 </v>
   <v>       0.39024390       0.17073171       0.07317073 </v>
   <v>       0.41463415       0.17073171       0.07317073 </v>
   <v>       0.43902439       0.17073171       0.07317073 </v>
   <v>       0.46341463       0.17073171       0.07317073 </v>
   <v>       0.48780488       0.17073171       0.07317073 </v>
   <v>      -0.48780488       0.17073171       0.07317073 </v>
   <v>      -0.46341463       0.17073171       0.07317073 </v>
   <v>      -0.43902439       0.17073171       0.07317073 </v>
   <v>      -0.41463415       0.17073171       0.07317073 </v>
   <v>      -0.39024390       0.17073171       0.07317073 </v>
   <v>      -0.36585366       0.17073171       0.07317073 </v>
   <v>      -0.34146341       0.17073171       0.07317073 </v>
   <v>      -0.31707317       0.17073171       0.07317073 </v>
   <v>      -0.29268293       0.17073171       0.07317073 </v>
   <v>      -0.26829268       0.17073171       0.07317073 </v>
   <v>      -0.24390244       0.17073171       0.07317073 </v>
   <v>      -0.21951220       0.17073171       0.07317073 </v>
   <v>      -0.19512195       0.17073171       0.07317073 </v>
   <v>      -0.17073171       0.17073171       0.07317073 </v>
   <v>      -0.14634146       0.17073171       0.07317073 </v>
   <v>      -0.12195122       0.17073171       0.07317073 </v>
   <v>      -0.09756098       0.17073171       0.07317073 </v>
   <v>       0.26829268       0.19512195       0.07317073 </v>
   <v>       0.29268293       0.19512195       0.07317073 </v>
   <v>       0.31707317       0.19512195       0.07317073 </v>
   <v>       0.34146341       0.19512195       0.07317073 </v>
   <v>       0.36585366       0.19512195       0.07317073 </v>
   <v>       0.39024390       0.19512195       0.07317073 </v>
   <v>       0.41463415       0.19512195       0.07317073 </v>
   <v>       0.43902439       0.19512195       0.07317073 </v>
   <v>       0.46341463       0.19512195       0.07317073 </v>
   <v>       0.48780488       0.19512195       0.07317073 </v>
   <v>      -0.48780488       0.19512195       0.07317073 </v>
   <v>      -0.46341463       0.19512195       0.07317073 </v>
   <v>      -0.43902439       0.19512195       0.07317073 </v>
   <v>      -0.41463415       0.19512195       0.07317073 </v>
   <v>      -0.39024390       0.19512195       0.07317073 </v>
   <v>      -0.36585366       0.19512195       0.07317073 </v>
   <v>      -0.34146341       0.19512195       0.07317073 </v>
   <v>      -0.31707317       0.19512195       0.07317073 </v>
   <v>      -0.29268293       0.19512195       0.07317073 </v>
   <v>      -0.26829268       0.19512195       0.07317073 </v>
   <v>      -0.24390244       0.19512195       0.07317073 </v>
   <v>      -0.21951220       0.19512195       0.07317073 </v>
   <v>      -0.19512195       0.19512195       0.07317073 </v>
   <v>      -0.17073171       0.19512195       0.07317073 </v>
   <v>      -0.14634146       0.19512195       0.07317073 </v>
   <v>      -0.12195122       0.19512195       0.07317073 </v>
   <v>       0.29268293       0.21951220       0.07317073 </v>
   <v>       0.31707317       0.21951220       0.07317073 </v>
   <v>       0.34146341       0.21951220       0.07317073 </v>
   <v>       0.36585366       0.21951220       0.07317073 </v>
   <v>       0.39024390       0.21951220       0.07317073 </v>
   <v>       0.41463415       0.21951220       0.07317073 </v>
   <v>       0.43902439       0.21951220       0.07317073 </v>
   <v>       0.46341463       0.21951220       0.07317073 </v>
   <v>       0.48780488       0.21951220       0.07317073 </v>
   <v>      -0.48780488       0.21951220       0.07317073 </v>
   <v>      -0.46341463       0.21951220       0.07317073 </v>
   <v>      -0.43902439       0.21951220       0.07317073 </v>
   <v>      -0.41463415       0.21951220       0.07317073 </v>
   <v>      -0.39024390       0.21951220       0.07317073 </v>
   <v>      -0.36585366       0.21951220       0.07317073 </v>
   <v>      -0.34146341       0.21951220       0.07317073 </v>
   <v>      -0.31707317       0.21951220       0.07317073 </v>
   <v>      -0.29268293       0.21951220       0.07317073 </v>
   <v>      -0.26829268       0.21951220       0.07317073 </v>
   <v>      -0.24390244       0.21951220       0.07317073 </v>
   <v>      -0.21951220       0.21951220       0.07317073 </v>
   <v>      -0.19512195       0.21951220       0.07317073 </v>
   <v>      -0.17073171       0.21951220       0.07317073 </v>
   <v>      -0.14634146       0.21951220       0.07317073 </v>
   <v>       0.31707317       0.24390244       0.07317073 </v>
   <v>       0.34146341       0.24390244       0.07317073 </v>
   <v>       0.36585366       0.24390244       0.07317073 </v>
   <v>       0.39024390       0.24390244       0.07317073 </v>
   <v>       0.41463415       0.24390244       0.07317073 </v>
   <v>       0.43902439       0.24390244       0.07317073 </v>
   <v>       0.46341463       0.24390244       0.07317073 </v>
   <v>       0.48780488       0.24390244       0.07317073 </v>
   <v>      -0.48780488       0.24390244       0.07317073 </v>
   <v>      -0.46341463       0.24390244       0.07317073 </v>
   <v>      -0.43902439       0.24390244       0.07317073 </v>
   <v>      -0.41463415       0.24390244       0.07317073 </v>
   <v>      -0.39024390       0.24390244       0.07317073 </v>
   <v>      -0.36585366       0.24390244       0.07317073 </v>
   <v>      -0.34146341       0.24390244       0.07317073 </v>
   <v>      -0.31707317       0.24390244       0.07317073 </v>
   <v>      -0.29268293       0.24390244       0.07317073 </v>
   <v>      -0.26829268       0.24390244       0.07317073 </v>
   <v>      -0.24390244       0.24390244       0.07317073 </v>
   <v>      -0.21951220       0.24390244       0.07317073 </v>
   <v>      -0.19512195       0.24390244       0.07317073 </v>
   <v>      -0.17073171       0.24390244       0.07317073 </v>
   <v>       0.34146341       0.26829268       0.07317073 </v>
   <v>       0.36585366       0.26829268       0.07317073 </v>
   <v>       0.39024390       0.26829268       0.07317073 </v>
   <v>       0.41463415       0.26829268       0.07317073 </v>
   <v>       0.43902439       0.26829268       0.07317073 </v>
   <v>       0.46341463       0.26829268       0.07317073 </v>
   <v>       0.48780488       0.26829268       0.07317073 </v>
   <v>      -0.48780488       0.26829268       0.07317073 </v>
   <v>      -0.46341463       0.26829268       0.07317073 </v>
   <v>      -0.43902439       0.26829268       0.07317073 </v>
   <v>      -0.41463415       0.26829268       0.07317073 </v>
   <v>      -0.39024390       0.26829268       0.07317073 </v>
   <v>      -0.36585366       0.26829268       0.07317073 </v>
   <v>      -0.34146341       0.26829268       0.07317073 </v>
   <v>      -0.31707317       0.26829268       0.07317073 </v>
   <v>      -0.29268293       0.26829268       0.07317073 </v>
   <v>      -0.26829268       0.26829268       0.07317073 </v>
   <v>      -0.24390244       0.26829268       0.07317073 </v>
   <v>      -0.21951220       0.26829268       0.07317073 </v>
   <v>      -0.19512195       0.26829268       0.07317073 </v>
   <v>       0.36585366       0.29268293       0.07317073 </v>
   <v>       0.39024390       0.29268293       0.07317073 </v>
   <v>       0.41463415       0.29268293       0.07317073 </v>
   <v>       0.43902439       0.29268293       0.07317073 </v>
   <v>       0.46341463       0.29268293       0.07317073 </v>
   <v>       0.48780488       0.29268293       0.07317073 </v>
   <v>      -0.48780488       0.29268293       0.07317073 </v>
   <v>      -0.46341463       0.29268293       0.07317073 </v>
   <v>      -0.43902439       0.29268293       0.07317073 </v>
   <v>      -0.41463415       0.29268293       0.07317073 </v>
   <v>      -0.39024390       0.29268293       0.07317073 </v>
   <v>      -0.36585366       0.29268293       0.07317073 </v>
   <v>      -0.34146341       0.29268293       0.07317073 </v>
   <v>      -0.31707317       0.29268293       0.07317073 </v>
   <v>      -0.29268293       0.29268293       0.07317073 </v>
   <v>      -0.26829268       0.29268293       0.07317073 </v>
   <v>      -0.24390244       0.29268293       0.07317073 </v>
   <v>      -0.21951220       0.29268293       0.07317073 </v>
   <v>       0.39024390       0.31707317       0.07317073 </v>
   <v>       0.41463415       0.31707317       0.07317073 </v>
   <v>       0.43902439       0.31707317       0.07317073 </v>
[...]
       </set>
       <set comment="band 6">
        <r>  0.0639  0.3878  0.0000  0.0165  0.1799  0.0000  0.0198  0.0000  0.0226 </r>
       </set>
       <set comment="band 7">
        <r>  0.0000  0.0000  0.4712  0.0000  0.0000  0.0044  0.0000  0.1911  0.0000 </r>
       </set>
       <set comment="band 8">
        <r>  0.1742  0.0865  0.0000  0.1142  0.0188  0.0000  0.1013  0.0000  0.1464 </r>
       </set>
       <set comment="band 9">
        <r>  0.4176  0.0077  0.0000  0.1512  0.0006  0.0000  0.0904  0.0000  0.0001 </r>
       </set>
      </set>
      <set comment="kpoint 1757">
       <set comment="band 1">
        <r>  0.0053  0.0010  0.0001  0.0307  0.0006  0.0000  0.4657  0.0005  0.3543 </r>
       </set>
       <set comment="band 2">
        <r>  0.0003  0.0000  0.0383  0.0002  0.0003  0.0020  0.0005  0.8633  0.0000 </r>
       </set>
       <set comment="band 3">
        <r>  0.0022  0.0618  0.0000  0.0000  0.8362  0.0013  0.0052  0.0005  0.0002 </r>
       </set>
       <set comment="band 4">
        <r>  0.0084  0.0007  0.0001  0.0010  0.0033  0.0003  0.4099  0.0001  0.5487 </r>
       </set>
       <set comment="band 5">
        <r>  0.0000  0.0000  0.0002  0.0000  0.0020  0.9920  0.0001  0.0027  0.0001 </r>
       </set>
       <set comment="band 6">
        <r>  0.0379  0.4240  0.0003  0.0120  0.1821  0.0008  0.0122  0.0000  0.0135 </r>
       </set>
       <set comment="band 7">
        <r>  0.0172  0.0005  0.4307  0.0194  0.0006  0.0021  0.0133  0.1801  0.0029 </r>
       </set>
       <set comment="band 8">
        <r>  0.2188  0.0543  0.0047  0.1161  0.0125  0.0000  0.0973  0.0034  0.1423 </r>
       </set>
       <set comment="band 9">
        <r>  0.3910  0.0032  0.0373  0.1278  0.0002  0.0001  0.0982  0.0106  0.0001 </r>
       </set>
      </set>
      <set comment="kpoint 1758">
       <set comment="band 1">
        <r>  0.0025  0.0002  0.0003  0.0322  0.0001  0.0000  0.5081  0.0008  0.3159 </r>
       </set>
       <set comment="band 2">
        <r>  0.0014  0.0000  0.0421  0.0005  0.0007  0.0006  0.0009  0.8575  0.0001 </r>
       </set>
       <set comment="band 3">
        <r>  0.0005  0.0595  0.0000  0.0000  0.8405  0.0047  0.0010  0.0009  0.0001 </r>
       </set>
       <set comment="band 4">
        <r>  0.0097  0.0001  0.0003  0.0006  0.0007  0.0003  0.3659  0.0009  0.5931 </r>
       </set>
       <set comment="band 5">
        <r>  0.0000  0.0002  0.0000  0.0000  0.0067  0.9892  0.0001  0.0008  0.0001 </r>
       </set>
       <set comment="band 6">
        <r>  0.0116  0.4597  0.0009  0.0055  0.1874  0.0029  0.0047  0.0002  0.0047 </r>
       </set>
       <set comment="band 7">
        <r>  0.0452  0.0012  0.3785  0.0391  0.0009  0.0006  0.0303  0.1680  0.0056 </r>
       </set>
       <set comment="band 8">
        <r>  0.2777  0.0192  0.0043  0.1177  0.0047  0.0000  0.0900  0.0059  0.1380 </r>
       </set>
       <set comment="band 9">
        <r>  0.3361  0.0006  0.0903  0.1078  0.0000  0.0001  0.1062  0.0237  0.0000 </r>
       </set>
      </set>
      <set comment="kpoint 1759">
       <set comment="band 1">
        <r>  0.0007  0.0000  0.0010  0.0334  0.0000  0.0000  0.5506  0.0004  0.2749 </r>
       </set>
       <set comment="band 2">
        <r>  0.0036  0.0000  0.0456  0.0008  0.0000  0.0000  0.0007  0.8503  0.0016 </r>
       </set>
       <set comment="band 3">
        <r>  0.0000  0.0564  0.0000  0.0000  0.8408  0.0094  0.0000  0.0000  0.0000 </r>
       </set>
       <set comment="band 4">
        <r>  0.0100  0.0000  0.0007  0.0002  0.0000  0.0000  0.3186  0.0026  0.6388 </r>
       </set>
       <set comment="band 5">
        <r>  0.0000  0.0004  0.0000  0.0000  0.0129  0.9835  0.0000  0.0000  0.0000 </r>
       </set>
       <set comment="band 6">
        <r>  0.0000  0.4782  0.0000  0.0000  0.1917  0.0064  0.0000  0.0000  0.0000 </r>
       </set>
       <set comment="band 7">
        <r>  0.0695  0.0000  0.3425  0.0487  0.0000  0.0000  0.0431  0.1644  0.0074 </r>
       </set>
       <set comment="band 8">
        <r>  0.3073  0.0000  0.0017  0.1258  0.0000  0.0000  0.0852  0.0068  0.1309 </r>
       </set>
       <set comment="band 9">
        <r>  0.2958  0.0000  0.1299  0.0913  0.0000  0.0000  0.1138  0.0310  0.0000 </r>
       </set>
      </set>
      <set comment="kpoint 1760">
       <set comment="band 1">
        <r>  0.0076  0.0003  0.0000  0.0286  0.0001  0.0000  0.4280  0.0000  0.3923 </r>
       </set>
       <set comment="band 2">
        <r>  0.0000  0.0000  0.0346  0.0000  0.0000  0.0004  0.0000  0.8702  0.0000 </r>
       </set>
       <set comment="band 3">
        <r>  0.0006  0.0650  0.0000  0.0000  0.8425  0.0000  0.0016  0.0000  0.0001 </r>
       </set>
       <set comment="band 4">
        <r>  0.0079  0.0002  0.0000  0.0015  0.0011  0.0000  0.4587  0.0000  0.5047 </r>
       </set>
       <set comment="band 5">
        <r>  0.0000  0.0000  0.0001  0.0000  0.0000  0.9969  0.0000  0.0006  0.0000 </r>
       </set>
       <set comment="band 6">
        <r>  0.0111  0.4692  0.0000  0.0029  0.1867  0.0000  0.0033  0.0000  0.0041 </r>
       </set>
       <set comment="band 7">
        <r>  0.0000  0.0000  0.4732  0.0000  0.0000  0.0005  0.0000  0.1925  0.0000 </r>
       </set>
       <set comment="band 8">
        <r>  0.2625  0.0158  0.0000  0.1126  0.0034  0.0000  0.1028  0.0000  0.1637 </r>
       </set>
       <set comment="band 9">
        <r>  0.3865  0.0006  0.0000  0.1681  0.0001  0.0000  0.1038  0.0000  0.0002 </r>
       </set>
      </set>
      <set comment="kpoint 1761">
       <set comment="band 1">
        <r>  0.0047  0.0000  0.0001  0.0306  0.0000  0.0000  0.4675  0.0004  0.3555 </r>
       </set>
       <set comment="band 2">
        <r>  0.0003  0.0000  0.0384  0.0002  0.0000  0.0000  0.0003  0.8656  0.0000 </r>
       </set>
       <set comment="band 3">
        <r>  0.0000  0.0626  0.0000  0.0000  0.8444  0.0014  0.0000  0.0000  0.0000 </r>
       </set>
       <set comment="band 4">
        <r>  0.0093  0.0000  0.0001  0.0010  0.0000  0.0000  0.4145  0.0002  0.5476 </r>
       </set>
       <set comment="band 5">
        <r>  0.0000  0.0000  0.0000  0.0000  0.0019  0.9956  0.0000  0.0000  0.0000 </r>
       </set>
       <set comment="band 6">
        <r>  0.0000  0.4836  0.0000  0.0000  0.1913  0.0008  0.0000  0.0000  0.0000 </r>
       </set>
       <set comment="band 7">
        <r>  0.0091  0.0000  0.4275  0.0254  0.0000  0.0000  0.0180  0.1782  0.0059 </r>
       </set>
       <set comment="band 8">
        <r>  0.2830  0.0000  0.0090  0.1148  0.0000  0.0000  0.0971  0.0060  0.1522 </r>
       </set>
       <set comment="band 9">
        <r>  0.3749  0.0000  0.0375  0.1360  0.0000  0.0000  0.1052  0.0107  0.0000 </r>
       </set>
      </set>
      <set comment="kpoint 1762">
       <set comment="band 1">
        <r>  0.0054  0.0067  0.0000  0.0336  0.0045  0.0000  0.4990  0.0000  0.3063 </r>
       </set>
       <set comment="band 2">
        <r>  0.0000  0.0000  0.0417  0.0000  0.0000  0.0143  0.0000  0.8500  0.0000 </r>
       </set>
       <set comment="band 3">
        <r>  0.0123  0.0552  0.0000  0.0001  0.8060  0.0000  0.0281  0.0000  0.0005 </r>
       </set>
       <set comment="band 4">
        <r>  0.0061  0.0032  0.0000  0.0007  0.0138  0.0000  0.3429  0.0000  0.6050 </r>
       </set>
       <set comment="band 5">
        <r>  0.0000  0.0000  0.0010  0.0000  0.0000  0.9745  0.0000  0.0197  0.0000 </r>
       </set>
       <set comment="band 6">
        <r>  0.1108  0.3025  0.0000  0.0369  0.1810  0.0000  0.0395  0.0000  0.0319 </r>
       </set>
       <set comment="band 7">
        <r>  0.0000  0.0000  0.4691  0.0000  0.0000  0.0132  0.0000  0.1898  0.0000 </r>
       </set>
       <set comment="band 8">
        <r>  0.2391  0.0004  0.0000  0.1933  0.0117  0.0000  0.1705  0.0000  0.0123 </r>
       </set>
       <set comment="band 9">
        <r>  0.3102  0.1700  0.0000  0.0357  0.0257  0.0000  0.0248  0.0000  0.1065 </r>
       </set>
      </set>
      <set comment="kpoint 1763">
       <set comment="band 1">
        <r>  0.0019  0.0036  0.0001  0.0342  0.0015  0.0000  0.5504  0.0002  0.2671 </r>
       </set>
       <set comment="band 2">
        <r>  0.0009  0.0008  0.0448  0.0001  0.0129  0.0112  0.0008  0.8335  0.0001 </r>
       </set>
       <set comment="band 3">
        <r>  0.0074  0.0534  0.0008  0.0003  0.8126  0.0003  0.0123  0.0151  0.0010 </r>
       </set>
       <set comment="band 4">
        <r>  0.0082  0.0019  0.0001  0.0003  0.0082  0.0011  0.3024  0.0001  0.6487 </r>
       </set>
       <set comment="band 5">
        <r>  0.0000  0.0000  0.0007  0.0000  0.0016  0.9781  0.0003  0.0147  0.0006 </r>
       </set>
       <set comment="band 6">
        <r>  0.0911  0.3276  0.0010  0.0377  0.1735  0.0005  0.0336  0.0001  0.0266 </r>
       </set>
       <set comment="band 7">
        <r>  0.0248  0.0003  0.4394  0.0086  0.0011  0.0089  0.0080  0.1831  0.0005 </r>
       </set>
       <set comment="band 8">
        <r>  0.1902  0.0031  0.0299  0.1816  0.0104  0.0003  0.1846  0.0092  0.0153 </r>
       </set>
       <set comment="band 9">
        <r>  0.3621  0.1439  0.0018  0.0361  0.0241  0.0002  0.0170  0.0000  0.0973 </r>
       </set>
      </set>
      <set comment="kpoint 1764">
       <set comment="band 1">
        <r>  0.0002  0.0016  0.0005  0.0344  0.0002  0.0000  0.5973  0.0000  0.2265 </r>
       </set>
       <set comment="band 2">
        <r>  0.0043  0.0092  0.0401  0.0001  0.1481  0.0098  0.0014  0.6878  0.0020 </r>
       </set>
       <set comment="band 3">
        <r>  0.0017  0.0429  0.0091  0.0005  0.6903  0.0003  0.0028  0.1575  0.0002 </r>
       </set>
       <set comment="band 4">
        <r>  0.0095  0.0010  0.0004  0.0000  0.0036  0.0024  0.2596  0.0010  0.6931 </r>
       </set>
       <set comment="band 5">
        <r>  0.0001  0.0001  0.0004  0.0000  0.0052  0.9792  0.0005  0.0098  0.0013 </r>
       </set>
       <set comment="band 6">
        <r>  0.0528  0.3467  0.0150  0.0416  0.1633  0.0012  0.0329  0.0041  0.0220 </r>
       </set>
       <set comment="band 7">
        <r>  0.0763  0.0106  0.3795  0.0138  0.0089  0.0062  0.0164  0.1707  0.0005 </r>
       </set>
       <set comment="band 8">
        <r>  0.0583  0.0196  0.0609  0.1935  0.0138  0.0001  0.2029  0.0202  0.0343 </r>
       </set>
       <set comment="band 9">
        <r>  0.4848  0.0983  0.0189  0.0141  0.0159  0.0007  0.0005  0.0015  0.0722 </r>
       </set>
      </set>
      <set comment="kpoint 1765">
       <set comment="band 1">
        <r>  0.0034  0.0022  0.0000  0.0327  0.0011  0.0000  0.5077  0.0000  0.3115 </r>
       </set>
       <set comment="band 2">
        <r>  0.0000  0.0000  0.0420  0.0000  0.0000  0.0051  0.0000  0.8584  0.0000 </r>
       </set>
       <set comment="band 3">
        <r>  0.0047  0.0582  0.0000  0.0001  0.8321  0.0000  0.0096  0.0000  0.0006 </r>
       </set>
       <set comment="band 4">
        <r>  0.0087  0.0013  0.0000  0.0006  0.0062  0.0000  0.3566  0.0000  0.5982 </r>
       </set>
       <set comment="band 5">
        <r>  0.0000  0.0000  0.0004  0.0000  0.0000  0.9892  0.0000  0.0071  0.0000 </r>
       </set>
       <set comment="band 6">
        <r>  0.0682  0.3735  0.0000  0.0240  0.1778  0.0000  0.0227  0.0000  0.0218 </r>
       </set>
       <set comment="band 7">
        <r>  0.0000  0.0000  0.4728  0.0000  0.0000  0.0049  0.0000  0.1934  0.0000 </r>
       </set>
       <set comment="band 8">
        <r>  0.0029  0.0577  0.0000  0.2244  0.0222  0.0000  0.1859  0.0000  0.0975 </r>
       </set>
       <set comment="band 9">
        <r>  0.5970  0.0475  0.0000  0.0204  0.0026  0.0000  0.0236  0.0000  0.0300 </r>
       </set>
      </set>
      <set comment="kpoint 1766">
       <set comment="band 1">
        <r>  0.0011  0.0008  0.0001  0.0336  0.0002  0.0000  0.5538  0.0001  0.2704 </r>
       </set>
       <set comment="band 2">
        <r>  0.0005  0.0002  0.0456  0.0001  0.0024  0.0028  0.0002  0.8532  0.0002 </r>
       </set>
       <set comment="band 3">
        <r>  0.0020  0.0558  0.0001  0.0001  0.8406  0.0008  0.0030  0.0028  0.0004 </r>
       </set>
       <set comment="band 4">
        <r>  0.0103  0.0005  0.0001  0.0002  0.0024  0.0003  0.3115  0.0003  0.6451 </r>
       </set>
       <set comment="band 5">
        <r>  0.0000  0.0000  0.0002  0.0000  0.0015  0.9916  0.0001  0.0037  0.0001 </r>
       </set>
       <set comment="band 6">
        <r>  0.0405  0.4102  0.0009  0.0187  0.1802  0.0006  0.0152  0.0002  0.0138 </r>
       </set>
       <set comment="band 7">
        <r>  0.0201  0.0009  0.4424  0.0102  0.0009  0.0024  0.0094  0.1860  0.0009 </r>
       </set>
       <set comment="band 8">
        <r>  0.0455  0.0501  0.0086  0.2043  0.0164  0.0000  0.1654  0.0044  0.1093 </r>
       </set>
       <set comment="band 9">
        <r>  0.5676  0.0174  0.0230  0.0327  0.0008  0.0001  0.0518  0.0051  0.0147 </r>
       </set>
      </set>
      <set comment="kpoint 1767">
       <set comment="band 1">
        <r>  0.0001  0.0002  0.0006  0.0342  0.0000  0.0000  0.5972  0.0000  0.2286 </r>
       </set>
       <set comment="band 2">
        <r>  0.0020  0.0010  0.0483  0.0002  0.0165  0.0013  0.0001  0.8333  0.0016 </r>
       </set>
       <set comment="band 3">
        <r>  0.0003  0.0519  0.0010  0.0001  0.8317  0.0030  0.0004  0.0175  0.0000 </r>
       </set>
       <set comment="band 4">
        <r>  0.0109  0.0001  0.0004  0.0000  0.0004  0.0003  0.2650  0.0015  0.6917 </r>
       </set>
       <set comment="band 5">
        <r>  0.0000  0.0002  0.0000  0.0000  0.0050  0.9907  0.0001  0.0011  0.0001 </r>
       </set>
       <set comment="band 6">
        <r>  0.0031  0.2363  0.1895  0.0297  0.0954  0.0004  0.0274  0.0809  0.0080 </r>
       </set>
       <set comment="band 7">
        <r>  0.0582  0.2165  0.2070  0.0036  0.0933  0.0028  0.0053  0.0955  0.0000 </r>
       </set>
       <set comment="band 8">
        <r>  0.1451  0.0221  0.0086  0.1841  0.0067  0.0000  0.1323  0.0075  0.1159 </r>
       </set>
       <set comment="band 9">
        <r>  0.4691  0.0026  0.0711  0.0467  0.0001  0.0001  0.0872  0.0152  0.0045 </r>
       </set>
      </set>
      <set comment="kpoint 1768">
       <set comment="band 1">
        <r>  0.0003  0.0000  0.0016  0.0344  0.0000  0.0000  0.6366  0.0002  0.1873 </r>
       </set>
       <set comment="band 2">
        <r>  0.0000  0.0494  0.0000  0.0000  0.8495  0.0069  0.0000  0.0000  0.0000 </r>
       </set>
       <set comment="band 3">
        <r>  0.0044  0.0000  0.0522  0.0003  0.0000  0.0000  0.0000  0.8412  0.0056 </r>
       </set>
       <set comment="band 4">
        <r>  0.0101  0.0000  0.0010  0.0000  0.0000  0.0000  0.2199  0.0043  0.7352 </r>
       </set>
       <set comment="band 5">
        <r>  0.0000  0.0004  0.0000  0.0000  0.0096  0.9868  0.0000  0.0000  0.0000 </r>
       </set>
       <set comment="band 6">
        <r>  0.0708  0.0000  0.3584  0.0344  0.0000  0.0000  0.0422  0.1725  0.0048 </r>
       </set>
       <set comment="band 7">
        <r>  0.0000  0.4752  0.0000  0.0000  0.1936  0.0056  0.0000  0.0000  0.0000 </r>
       </set>
       <set comment="band 8">
        <r>  0.2057  0.0000  0.0049  0.1830  0.0000  0.0000  0.1148  0.0090  0.1115 </r>
       </set>
       <set comment="band 9">
        <r>  0.3973  0.0000  0.1128  0.0460  0.0000  0.0000  0.1062  0.0220  0.0019 </r>
       </set>
      </set>
      <set comment="kpoint 1769">
       <set comment="band 1">
        <r>  0.0026  0.0002  0.0000  0.0324  0.0001  0.0000  0.5106  0.0000  0.3137 </r>
       </set>
       <set comment="band 2">
        <r>  0.0000  0.0000  0.0421  0.0000  0.0000  0.0006  0.0000  0.8625  0.0000 </r>
       </set>
       <set comment="band 3">
        <r>  0.0005  0.0596  0.0000  0.0000  0.8459  0.0000  0.0011  0.0000  0.0001 </r>
       </set>
       <set comment="band 4">
        <r>  0.0103  0.0002  0.0000  0.0006  0.0008  0.0000  0.3639  0.0000  0.5958 </r>
       </set>
       <set comment="band 5">
        <r>  0.0000  0.0000  0.0000  0.0000  0.0000  0.9967  0.0000  0.0008  0.0000 </r>
       </set>
       <set comment="band 6">
        <r>  0.0128  0.4616  0.0000  0.0047  0.1898  0.0000  0.0042  0.0000  0.0044 </r>
       </set>
       <set comment="band 7">
        <r>  0.0000  0.0000  0.4748  0.0000  0.0000  0.0006  0.0000  0.1953  0.0000 </r>
       </set>
       <set comment="band 8">
        <r>  0.1714  0.0184  0.0000  0.1660  0.0050  0.0000  0.1304  0.0000  0.1426 </r>
       </set>
       <set comment="band 9">
        <r>  0.4878  0.0016  0.0000  0.0995  0.0000  0.0000  0.0965  0.0000  0.0014 </r>
       </set>
      </set>
      <set comment="kpoint 1770">
       <set comment="band 1">
        <r>  0.0009  0.0000  0.0001  0.0335  0.0000  0.0000  0.5545  0.0000  0.2714 </r>
       </set>
       <set comment="band 2">
        <r>  0.0004  0.0000  0.0458  0.0001  0.0000  0.0000  0.0001  0.8584  0.0002 </r>
       </set>
       <set comment="band 3">
        <r>  0.0000  0.0565  0.0000  0.0000  0.8490  0.0010  0.0000  0.0000  0.0000 </r>
       </set>
       <set comment="band 4">
        <r>  0.0111  0.0000  0.0001  0.0002  0.0000  0.0000  0.3147  0.0003  0.6442 </r>
       </set>
       <set comment="band 5">
        <r>  0.0000  0.0000  0.0000  0.0000  0.0014  0.9961  0.0000  0.0000  0.0000 </r>
       </set>
       <set comment="band 6">
        <r>  0.0000  0.4800  0.0000  0.0000  0.1948  0.0007  0.0000  0.0000  0.0000 </r>
       </set>
       <set comment="band 7">
        <r>  0.0149  0.0000  0.4437  0.0129  0.0000  0.0000  0.0117  0.1867  0.0018 </r>
       </set>
       <set comment="band 8">
        <r>  0.1673  0.0000  0.0048  0.1825  0.0000  0.0000  0.1370  0.0034  0.1337 </r>
       </set>
       <set comment="band 9">
        <r>  0.4932  0.0000  0.0273  0.0711  0.0000  0.0000  0.0928  0.0067  0.0028 </r>
       </set>
      </set>
      <set comment="kpoint 1771">
       <set comment="band 1">
        <r>  0.0001  0.0002  0.0000  0.0342  0.0000  0.0000  0.5988  0.0000  0.2275 </r>
       </set>
       <set comment="band 2">
        <r>  0.0000  0.0000  0.0495  0.0000  0.0000  0.0008  0.0000  0.8553  0.0000 </r>
       </set>
       <set comment="band 3">
        <r>  0.0005  0.0530  0.0000  0.0000  0.8515  0.0000  0.0005  0.0000  0.0002 </r>
       </set>
       <set comment="band 4">
        <r>  0.0115  0.0001  0.0000  0.0000  0.0005  0.0000  0.2633  0.0000  0.6947 </r>
       </set>
       <set comment="band 5">
        <r>  0.0000  0.0000  0.0000  0.0000  0.0000  0.9965  0.0000  0.0011  0.0000 </r>
       </set>
       <set comment="band 6">
        <r>  0.0144  0.4535  0.0000  0.0077  0.1898  0.0000  0.0056  0.0000  0.0048 </r>
       </set>
       <set comment="band 7">
        <r>  0.0000  0.0000  0.4771  0.0000  0.0000  0.0006  0.0000  0.1960  0.0000 </r>
       </set>
       <set comment="band 8">
        <r>  0.0015  0.0145  0.0000  0.2546  0.0058  0.0000  0.2254  0.0000  0.0877 </r>
       </set>
       <set comment="band 9">
        <r>  0.6612  0.0104  0.0000  0.0023  0.0013  0.0000  0.0208  0.0000  0.0358 </r>
       </set>
      </set>
     </set>
    </set>
   </array>
  </projected>
 </calculation>
 <structure name="finalpos" >
  <crystal>
   <varray name="basis" >
    <v>       1.81000000       1.81000000       0.00000000 </v>
    <v>       0.00000000       1.81000000       1.81000000 </v>
    <v>       1.81000000       0.00000000       1.81000000 </v>
   </varray>
   <i name="volume">     11.85948200 </i>
   <varray name="rec_basis" >
    <v>       0.27624309       0.27624309      -0.27624309 </v>
    <v>      -0.27624309       0.27624309       0.27624309 </v>
    <v>       0.27624309      -0.27624309       0.27624309 </v>
   </varray>
  </crystal>
  <varray name="positions" >
   <v>       0.00000000       0.00000000       0.00000000 </v>
  </varray>
 </structure>
</modeling>
